
             +---------------------------------------------------+
             |                                                   |
             |                   WANNIER90                       |
             |                                                   |
             +---------------------------------------------------+
             |                                                   |
             |        Welcome to the Maximally-Localized         |
             |        Generalized Wannier Functions code         |
             |            http://www.wannier.org                 |
             |                                                   |
             |                                                   |
             |  Wannier90 Developer Group:                       |
             |    Giovanni Pizzi    (EPFL)                       |
             |    Valerio Vitale    (Cambridge)                  |
             |    David Vanderbilt  (Rutgers University)         |
             |    Nicola Marzari    (EPFL)                       |
             |    Ivo Souza         (Universidad del Pais Vasco) |
             |    Arash A. Mostofi  (Imperial College London)    |
             |    Jonathan R. Yates (University of Oxford)       |
             |                                                   |
             |  For the full list of Wannier90 3.x authors,      |
             |  please check the code documentation and the      |
             |  README on the GitHub page of the code            |
             |                                                   |
             |                                                   |
             |  Please cite                                      |
             |                                                   |
             |  [ref] "An updated version of Wannier90:          |
             |        A Tool for Obtaining Maximally Localised   |
             |        Wannier Functions", A. A. Mostofi,         |
             |        J. R. Yates, G. Pizzi, Y. S. Lee,          |
             |        I. Souza, D. Vanderbilt and N. Marzari,    |
             |        Comput. Phys. Commun. 185, 2309 (2014)     |
             |        http://dx.doi.org/10.1016/j.cpc.2014.05.003|
             |                                                   |
             |  in any publications arising from the use of      |
             |  this code. For the method please cite            |
             |                                                   |
             |  [ref] "Maximally Localized Generalised Wannier   |
             |         Functions for Composite Energy Bands"     |
             |         N. Marzari and D. Vanderbilt              |
             |         Phys. Rev. B 56 12847 (1997)              |
             |                                                   |
             |  [ref] "Maximally Localized Wannier Functions     |
             |         for Entangled Energy Bands"               |
             |         I. Souza, N. Marzari and D. Vanderbilt    |
             |         Phys. Rev. B 65 035109 (2001)             |
             |                                                   |
             |                                                   |
             | Copyright (c) 1996-2019                           |
             |        The Wannier90 Developer Group and          |
             |        individual contributors                    |
             |                                                   |
             |      Release: 3.0.0       27th February 2019      |
             |                                                   |
             | This program is free software; you can            |
             | redistribute it and/or modify it under the terms  |
             | of the GNU General Public License as published by |
             | the Free Software Foundation; either version 2 of |
             | the License, or (at your option) any later version|
             |                                                   |
             | This program is distributed in the hope that it   |
             | will be useful, but WITHOUT ANY WARRANTY; without |
             | even the implied warranty of MERCHANTABILITY or   |
             | FITNESS FOR A PARTICULAR PURPOSE. See the GNU     |
             | General Public License for more details.          |
             |                                                   |
             | You should have received a copy of the GNU General|
             | Public License along with this program; if not,   |
             | write to the Free Software Foundation, Inc.,      |
             | 675 Mass Ave, Cambridge, MA 02139, USA.           |
             |                                                   |
             +---------------------------------------------------+
             |    Execution started on 22May2019 at 11:50:27     |
             +---------------------------------------------------+
 
 ******************************************************************************
 * -> Using CODATA 2006 constant values                                       *
 *    (http://physics.nist.gov/cuu/Constants/index.html)                      *
 * -> Using Bohr value from CODATA                                            *
 ******************************************************************************
 

 Running in serial (with serial executable)

                                    ------
                                    SYSTEM
                                    ------

                              Lattice Vectors (Ang)
                    a_1     4.177000   0.000000   0.000000
                    a_2     0.000000   4.177000   0.000000
                    a_3     0.000000   0.000000   4.177000

                   Unit Cell Volume:      72.87749  (Ang^3)

                        Reciprocal-Space Vectors (Ang^-1)
                    b_1     1.504234   0.000000   0.000000
                    b_2     0.000000   1.504234   0.000000
                    b_3     0.000000   0.000000   1.504234
  
 *----------------------------------------------------------------------------*
 |   Site       Fractional Coordinate          Cartesian Coordinate (Ang)     |
 +----------------------------------------------------------------------------+
 | O    1   0.00000   0.00000   0.00000   |    0.00000   0.00000   0.00000    |
 | O    2   0.00000   0.50000   0.50000   |    0.00000   2.08850   2.08850    |
 | O    3   0.50000   0.00000   0.50000   |    2.08850   0.00000   2.08850    |
 | O    4   0.50000   0.50000   0.00000   |    2.08850   2.08850   0.00000    |
 | Ni   1   0.50000   0.50000   0.50000   |    2.08850   2.08850   2.08850    |
 | Ni   2   0.00000   0.00000   0.50000   |    0.00000   0.00000   2.08850    |
 | Ni   3   0.00000   0.50000   0.00000   |    0.00000   2.08850   0.00000    |
 | Ni   4   0.50000   0.00000   0.00000   |    2.08850   0.00000   0.00000    |
 *----------------------------------------------------------------------------*
                                ------------
                                K-POINT GRID
                                ------------
  
             Grid size =  4 x  4 x  4      Total points =   64
  
  
 *---------------------------------- MAIN ------------------------------------*
 |  Number of Wannier Functions               :                32             |
 |  Number of Objective Wannier Functions     :                32             |
 |  Number of input Bloch states              :                38             |
 |  Output verbosity (1=low, 5=high)          :                 1             |
 |  Timing Level (1=low, 5=high)              :                 1             |
 |  Optimisation (0=memory, 3=speed)          :                 3             |
 |  Length Unit                               :               Ang             |
 |  Post-processing setup (write *.nnkp)      :                 F             |
 |  Using Gamma-only branch of algorithms     :                 F             |
 |  Using symmetry-adapted WF mode            :                 T             |
 |  Tolerance for symmetry condition on U     :         0.100E-03             |
 |  Wavefunction (UNK) file-type              :       unformatted             |
 |  Wavefunction spin channel                 :                up             |
 *----------------------------------------------------------------------------*
 *------------------------------- WANNIERISE ---------------------------------*
 |  Total number of iterations                :                50             |
 |  Number of CG steps before reset           :                 5             |
 |  Trial step length for line search         :             2.000             |
 |  Convergence tolerence                     :         0.100E-09             |
 |  Convergence window                        :                -1             |
 |  Iterations between writing output         :                 1             |
 |  Iterations between backing up to disk     :               100             |
 |  Write r^2_nm to file                      :                 F             |
 |  Write xyz WF centres to file              :                 F             |
 |  Write on-site energies <0n|H|0n> to file  :                 F             |
 |  Use guiding centre to control phases      :                 F             |
 |  Use phases for initial projections        :                 F             |
 *----------------------------------------------------------------------------*
 *------------------------------- DISENTANGLE --------------------------------*
 |  Using band disentanglement                :                 T             |
 |  Total number of iterations                :               200             |
 |  Mixing ratio                              :             0.500             |
 |  Convergence tolerence                     :         1.000E-10             |
 |  Convergence window                        :                 3             |
 *----------------------------------------------------------------------------*
 *-------------------------------- PLOTTING ----------------------------------*
 |  Plotting Wannier functions                :                 T             |
 |   Size of supercell for plotting           :     3x    3x    3             |
 |   Plotting mode (molecule or crystal)      :           crystal             |
 |   Plotting format                          :          xcrysden             |
 *----------------------------------------------------------------------------*
 |  Plotting interpolated bandstructure       :                 T             |
 |   Number of K-path sections                :                 5             |
 |   Divisions along first K-path section     :               100             |
 |   Output format                            :           gnuplot             |
 |   Output mode                              :               s-k             |
 *----------------------------------------------------------------------------*
 |   K-space path sections:                                                   |
 |    From: W       0.250  0.750  0.500     To: L       0.500  0.500  0.500   |
 |    From: L       0.500  0.500  0.500     To: G       0.000  0.000  0.000   |
 |    From: G       0.000  0.000  0.000     To: X       0.000  0.500  0.500   |
 |    From: X       0.000  0.500  0.500     To: W       0.250  0.750  0.500   |
 |    From: W       0.250  0.750  0.500     To: K       0.375  0.750  0.375   |
 *----------------------------------------------------------------------------*
 |  Plotting Hamiltonian in WF basis          :                 T             |
 *----------------------------------------------------------------------------*
 Time to read parameters        0.012 (sec)

 *---------------------------------- K-MESH ----------------------------------*
 +----------------------------------------------------------------------------+
 |                    Distance to Nearest-Neighbour Shells                    |
 |                    ------------------------------------                    |
 |          Shell             Distance (Ang^-1)          Multiplicity         |
 |          -----             -----------------          ------------         |
 |             1                   0.376058                      6            |
 |             2                   0.531827                     12            |
 |             3                   0.651352                      8            |
 |             4                   0.752117                      6            |
 |             5                   0.840892                     24            |
 |             6                   0.921151                     24            |
 |             7                   1.063654                     12            |
 |             8                   1.128175                     30            |
 |             9                   1.189201                     24            |
 |            10                   1.247245                     24            |
 |            11                   1.302705                      8            |
 |            12                   1.355898                     24            |
 |            13                   1.407082                     48            |
 |            14                   1.504234                      6            |
 |            15                   1.550529                     48            |
 |            16                   1.595481                     36            |
 |            17                   1.639201                     24            |
 |            18                   1.681785                     24            |
 |            19                   1.723317                     48            |
 |            20                   1.763871                     24            |
 |            21                   1.842303                     24            |
 |            22                   1.880292                     30            |
 |            23                   1.917530                     72            |
 |            24                   1.954057                     32            |
 |            25                   2.025137                     72            |
 |            26                   2.059757                     48            |
 |            27                   2.127308                     12            |
 |            28                   2.160292                     48            |
 |            29                   2.192779                     48            |
 |            30                   2.224792                     48            |
 |            31                   2.256351                     30            |
 |            32                   2.287475                     24            |
 |            33                   2.318180                     72            |
 |            34                   2.378403                     24            |
 |            35                   2.407949                     96            |
 |            36                   2.437138                     48            |
 +----------------------------------------------------------------------------+
 | The b-vectors are chosen automatically                                     |
 | The following shells are used:   1                                         |
 +----------------------------------------------------------------------------+
 |                        Shell   # Nearest-Neighbours                        |
 |                        -----   --------------------                        |
 |                          1               6                                 |
 +----------------------------------------------------------------------------+
 | Completeness relation is fully satisfied [Eq. (B1), PRB 56, 12847 (1997)]  |
 +----------------------------------------------------------------------------+
 |                  b_k Vectors (Ang^-1) and Weights (Ang^2)                  |
 |                  ----------------------------------------                  |
 |            No.         b_k(x)      b_k(y)      b_k(z)        w_b           |
 |            ---        --------------------------------     --------        |
 |             1         0.000000    0.000000    0.376058     3.535568        |
 |             2         0.000000    0.376058    0.000000     3.535568        |
 |             3         0.376058    0.000000    0.000000     3.535568        |
 |             4         0.000000    0.000000   -0.376058     3.535568        |
 |             5         0.000000   -0.376058    0.000000     3.535568        |
 |             6        -0.376058    0.000000    0.000000     3.535568        |
 +----------------------------------------------------------------------------+
 |                           b_k Directions (Ang^-1)                          |
 |                           -----------------------                          |
 |            No.           x           y           z                         |
 |            ---        --------------------------------                     |
 |             1         0.000000    0.000000    0.376058                     |
 |             2         0.000000    0.376058    0.000000                     |
 |             3         0.376058    0.000000    0.000000                     |
 +----------------------------------------------------------------------------+
  
 Time to get kmesh              0.210 (sec)
 *============================================================================*
 |                              MEMORY ESTIMATE                               |
 |         Maximum RAM allocated during each phase of the calculation         |
 *============================================================================*
 |                        Disentanglement           17.92 Mb                  |
 |                            Wannierise:           17.79 Mb                  |
 |                          plot_wannier:           17.79 Mb                  |
 *----------------------------------------------------------------------------*
  
 Starting a new Wannier90 calculation ...


 Reading overlaps from NiO.mmn    :  Created on 22May2019 at 11:50: 9

 Reading projections from NiO.amn :  Created on 22May2019 at 11:42:40

 Time to read overlaps          2.598 (sec)

 *------------------------------- DISENTANGLE --------------------------------*
 +----------------------------------------------------------------------------+
 |                              Energy  Windows                               |
 |                              ---------------                               |
 |                   Outer:    7.30574  to   26.68069  (eV)                   |
 |                   No frozen states were specified                          |
 +----------------------------------------------------------------------------+
   Number of target bands to extract:   32

                   Unitarised projection of Wannier functions                  
                   ------------------------------------------                  
   A_mn = <psi_m|g_n> --> S = A.A^+ --> U = S^-1/2.A
   In dis_project... done
   No inner window (linner = F)

                   Extraction of optimally-connected subspace                  
                   ------------------------------------------                  
 +---------------------------------------------------------------------+<-- DIS
 |  Iter     Omega_I(i-1)      Omega_I(i)      Delta (frac.)    Time   |<-- DIS
 +---------------------------------------------------------------------+<-- DIS
       1     658.39332595      19.96179266       3.198E+01      0.00    <-- DIS
       2     658.39332591      19.96179266       3.198E+01     25.43    <-- DIS
       3     658.39332591      19.96179266       3.198E+01     50.86    <-- DIS
       4     658.39332596      19.96179266       3.198E+01     76.31    <-- DIS
       5     658.39332596      19.96179266       3.198E+01    101.76    <-- DIS
       6     658.39332596      19.96179266       3.198E+01    127.19    <-- DIS
       7     658.39332596      19.96179266       3.198E+01    152.60    <-- DIS
       8     658.39332596      19.96179266       3.198E+01    178.02    <-- DIS
       9     658.39332595      19.96179266       3.198E+01    203.44    <-- DIS
      10     658.39332596      19.96179266       3.198E+01    228.86    <-- DIS
      11     658.39332595      19.96179266       3.198E+01    254.33    <-- DIS
      12     658.39332595      19.96179266       3.198E+01    279.82    <-- DIS
      13     658.39332595      19.96179266       3.198E+01    305.29    <-- DIS
      14     658.39332595      19.96179266       3.198E+01    330.76    <-- DIS
      15     658.39332595      19.96179266       3.198E+01    356.24    <-- DIS
      16     658.39332595      19.96179266       3.198E+01    381.71    <-- DIS
      17     658.39332595      19.96179266       3.198E+01    407.17    <-- DIS
      18     658.39332595      19.96179266       3.198E+01    432.64    <-- DIS
      19     658.39332595      19.96179266       3.198E+01    458.09    <-- DIS
      20     658.39332595      19.96179266       3.198E+01    483.54    <-- DIS
      21     658.39332595      19.96179266       3.198E+01    508.98    <-- DIS
      22     658.39332595      19.96179266       3.198E+01    534.44    <-- DIS
      23     658.39332595      19.96179266       3.198E+01    559.88    <-- DIS
      24     658.39332595      19.96179266       3.198E+01    585.32    <-- DIS
      25     658.39332595      19.96179266       3.198E+01    610.77    <-- DIS
      26     658.39332595      19.96179266       3.198E+01    636.21    <-- DIS
      27     658.39332595      19.96179266       3.198E+01    661.65    <-- DIS
      28     658.39332595      19.96179266       3.198E+01    687.10    <-- DIS
      29     658.39332595      19.96179266       3.198E+01    712.54    <-- DIS
      30     658.39332595      19.96179266       3.198E+01    737.97    <-- DIS
      31     658.39332595      19.96179266       3.198E+01    763.41    <-- DIS
      32     658.39332595      19.96179266       3.198E+01    788.84    <-- DIS
      33     658.39332595      19.96179266       3.198E+01    814.27    <-- DIS
      34     658.39332595      19.96179266       3.198E+01    839.71    <-- DIS
      35     658.39332595      19.96179266       3.198E+01    865.14    <-- DIS
      36     658.39332595      19.96179266       3.198E+01    890.60    <-- DIS
      37     658.39332595      19.96179266       3.198E+01    916.02    <-- DIS
      38     658.39332595      19.96179266       3.198E+01    941.45    <-- DIS
      39     658.39332595      19.96179266       3.198E+01    966.88    <-- DIS
      40     658.39332595      19.96179266       3.198E+01    992.31    <-- DIS
      41     658.39332595      19.96179266       3.198E+01   1017.74    <-- DIS
      42     658.39332595      19.96179266       3.198E+01   1043.16    <-- DIS
      43     658.39332595      19.96179266       3.198E+01   1068.59    <-- DIS
      44     658.39332595      19.96179266       3.198E+01   1094.03    <-- DIS
      45     658.39332595      19.96179266       3.198E+01   1119.46    <-- DIS
      46     658.39332595      19.96179266       3.198E+01   1144.89    <-- DIS
      47     658.39332595      19.96179266       3.198E+01   1170.32    <-- DIS
      48     658.39332595      19.96179266       3.198E+01   1195.74    <-- DIS
      49     658.39332595      19.96179266       3.198E+01   1221.17    <-- DIS
      50     658.39332595      19.96179266       3.198E+01   1246.59    <-- DIS
      51     658.39332595      19.96179266       3.198E+01   1272.02    <-- DIS
      52     658.39332595      19.96179266       3.198E+01   1297.48    <-- DIS
      53     658.39332595      19.96179266       3.198E+01   1322.99    <-- DIS
      54     658.39332595      19.96179266       3.198E+01   1348.51    <-- DIS
      55     658.39332595      19.96179266       3.198E+01   1374.02    <-- DIS
      56     658.39332595      19.96179266       3.198E+01   1399.52    <-- DIS
      57     658.39332595      19.96179266       3.198E+01   1425.02    <-- DIS
      58     658.39332595      19.96179266       3.198E+01   1450.52    <-- DIS
      59     658.39332595      19.96179266       3.198E+01   1476.02    <-- DIS
      60     658.39332595      19.96179266       3.198E+01   1501.52    <-- DIS
      61     658.39332595      19.96179266       3.198E+01   1527.02    <-- DIS
      62     658.39332595      19.96179266       3.198E+01   1552.52    <-- DIS
      63     658.39332595      19.96179266       3.198E+01   1578.03    <-- DIS
      64     658.39332595      19.96179266       3.198E+01   1603.51    <-- DIS
      65     658.39332595      19.96179266       3.198E+01   1628.98    <-- DIS
      66     658.39332595      19.96179266       3.198E+01   1654.44    <-- DIS
      67     658.39332595      19.96179266       3.198E+01   1679.90    <-- DIS
      68     658.39332595      19.96179266       3.198E+01   1705.36    <-- DIS
      69     658.39332595      19.96179266       3.198E+01   1730.82    <-- DIS
      70     658.39332595      19.96179266       3.198E+01   1756.29    <-- DIS
      71     658.39332595      19.96179266       3.198E+01   1781.75    <-- DIS
      72     658.39332595      19.96179266       3.198E+01   1807.21    <-- DIS
      73     658.39332595      19.96179266       3.198E+01   1832.68    <-- DIS
      74     658.39332595      19.96179266       3.198E+01   1858.14    <-- DIS
      75     658.39332595      19.96179266       3.198E+01   1883.60    <-- DIS
      76     658.39332595      19.96179266       3.198E+01   1909.07    <-- DIS
      77     658.39332595      19.96179266       3.198E+01   1934.53    <-- DIS
      78     658.39332595      19.96179266       3.198E+01   1959.98    <-- DIS
      79     658.39332595      19.96179266       3.198E+01   1985.44    <-- DIS
      80     658.39332595      19.96179266       3.198E+01   2010.90    <-- DIS
      81     658.39332595      19.96179266       3.198E+01   2036.36    <-- DIS
      82     658.39332595      19.96179266       3.198E+01   2061.81    <-- DIS
      83     658.39332595      19.96179266       3.198E+01   2087.27    <-- DIS
      84     658.39332595      19.96179266       3.198E+01   2112.72    <-- DIS
      85     658.39332595      19.96179266       3.198E+01   2138.17    <-- DIS
      86     658.39332595      19.96179266       3.198E+01   2163.60    <-- DIS
      87     658.39332595      19.96179266       3.198E+01   2189.04    <-- DIS
      88     658.39332595      19.96179266       3.198E+01   2214.47    <-- DIS
      89     658.39332595      19.96179266       3.198E+01   2239.95    <-- DIS
      90     658.39332595      19.96179266       3.198E+01   2265.44    <-- DIS
      91     658.39332595      19.96179266       3.198E+01   2290.93    <-- DIS
      92     658.39332595      19.96179266       3.198E+01   2316.42    <-- DIS
      93     658.39332595      19.96179266       3.198E+01   2341.91    <-- DIS
      94     658.39332595      19.96179266       3.198E+01   2367.40    <-- DIS
      95     658.39332595      19.96179266       3.198E+01   2392.89    <-- DIS
      96     658.39332595      19.96179266       3.198E+01   2418.38    <-- DIS
      97     658.39332595      19.96179266       3.198E+01   2443.87    <-- DIS
      98     658.39332595      19.96179266       3.198E+01   2469.36    <-- DIS
      99     658.39332595      19.96179266       3.198E+01   2494.85    <-- DIS
     100     658.39332595      19.96179266       3.198E+01   2520.34    <-- DIS
     101     658.39332595      19.96179266       3.198E+01   2545.79    <-- DIS
     102     658.39332595      19.96179266       3.198E+01   2571.25    <-- DIS
     103     658.39332595      19.96179266       3.198E+01   2596.70    <-- DIS
     104     658.39332595      19.96179266       3.198E+01   2622.15    <-- DIS
     105     658.39332595      19.96179266       3.198E+01   2647.62    <-- DIS
     106     658.39332595      19.96179266       3.198E+01   2673.10    <-- DIS
     107     658.39332595      19.96179266       3.198E+01   2698.58    <-- DIS
     108     658.39332595      19.96179266       3.198E+01   2724.06    <-- DIS
     109     658.39332595      19.96179266       3.198E+01   2749.54    <-- DIS
     110     658.39332595      19.96179266       3.198E+01   2775.02    <-- DIS
     111     658.39332595      19.96179266       3.198E+01   2800.50    <-- DIS
     112     658.39332595      19.96179266       3.198E+01   2825.98    <-- DIS
     113     658.39332595      19.96179266       3.198E+01   2851.46    <-- DIS
     114     658.39332595      19.96179266       3.198E+01   2876.94    <-- DIS
     115     658.39332595      19.96179266       3.198E+01   2902.42    <-- DIS
     116     658.39332595      19.96179266       3.198E+01   2927.91    <-- DIS
     117     658.39332595      19.96179266       3.198E+01   2953.39    <-- DIS
     118     658.39332595      19.96179266       3.198E+01   2978.84    <-- DIS
     119     658.39332595      19.96179266       3.198E+01   3004.29    <-- DIS
     120     658.39332595      19.96179266       3.198E+01   3029.74    <-- DIS
     121     658.39332595      19.96179266       3.198E+01   3055.19    <-- DIS
     122     658.39332595      19.96179266       3.198E+01   3080.64    <-- DIS
     123     658.39332595      19.96179266       3.198E+01   3106.08    <-- DIS
     124     658.39332595      19.96179266       3.198E+01   3131.52    <-- DIS
     125     658.39332595      19.96179266       3.198E+01   3156.95    <-- DIS
     126     658.39332595      19.96179266       3.198E+01   3182.39    <-- DIS
     127     658.39332595      19.96179266       3.198E+01   3207.83    <-- DIS
     128     658.39332595      19.96179266       3.198E+01   3233.30    <-- DIS
     129     658.39332595      19.96179266       3.198E+01   3258.72    <-- DIS
     130     658.39332595      19.96179266       3.198E+01   3284.16    <-- DIS
     131     658.39332595      19.96179266       3.198E+01   3309.61    <-- DIS
     132     658.39332595      19.96179266       3.198E+01   3335.05    <-- DIS
     133     658.39332595      19.96179266       3.198E+01   3360.50    <-- DIS
     134     658.39332595      19.96179266       3.198E+01   3385.94    <-- DIS
     135     658.39332595      19.96179266       3.198E+01   3411.39    <-- DIS
     136     658.39332595      19.96179266       3.198E+01   3436.84    <-- DIS
     137     658.39332595      19.96179266       3.198E+01   3462.27    <-- DIS
     138     658.39332595      19.96179266       3.198E+01   3487.71    <-- DIS
     139     658.39332595      19.96179266       3.198E+01   3513.14    <-- DIS
     140     658.39332595      19.96179266       3.198E+01   3538.58    <-- DIS
     141     658.39332595      19.96179266       3.198E+01   3564.02    <-- DIS
     142     658.39332595      19.96179266       3.198E+01   3589.48    <-- DIS
     143     658.39332595      19.96179266       3.198E+01   3614.94    <-- DIS
     144     658.39332595      19.96179266       3.198E+01   3640.40    <-- DIS
     145     658.39332595      19.96179266       3.198E+01   3665.86    <-- DIS
     146     658.39332595      19.96179266       3.198E+01   3691.34    <-- DIS
     147     658.39332595      19.96179266       3.198E+01   3716.79    <-- DIS
     148     658.39332595      19.96179266       3.198E+01   3742.24    <-- DIS
     149     658.39332595      19.96179266       3.198E+01   3767.69    <-- DIS
     150     658.39332595      19.96179266       3.198E+01   3793.14    <-- DIS
     151     658.39332595      19.96179266       3.198E+01   3818.58    <-- DIS
     152     658.39332595      19.96179266       3.198E+01   3844.03    <-- DIS
     153     658.39332595      19.96179266       3.198E+01   3869.49    <-- DIS
     154     658.39332595      19.96179266       3.198E+01   3894.94    <-- DIS
     155     658.39332595      19.96179266       3.198E+01   3920.38    <-- DIS
     156     658.39332595      19.96179266       3.198E+01   3945.83    <-- DIS
     157     658.39332595      19.96179266       3.198E+01   3971.28    <-- DIS
     158     658.39332595      19.96179266       3.198E+01   3996.71    <-- DIS
     159     658.39332595      19.96179266       3.198E+01   4022.14    <-- DIS
     160     658.39332595      19.96179266       3.198E+01   4047.57    <-- DIS
     161     658.39332595      19.96179266       3.198E+01   4073.01    <-- DIS
     162     658.39332595      19.96179266       3.198E+01   4098.44    <-- DIS
     163     658.39332595      19.96179266       3.198E+01   4123.88    <-- DIS
     164     658.39332595      19.96179266       3.198E+01   4149.31    <-- DIS
     165     658.39332595      19.96179266       3.198E+01   4174.78    <-- DIS
     166     658.39332595      19.96179266       3.198E+01   4200.24    <-- DIS
     167     658.39332595      19.96179266       3.198E+01   4225.71    <-- DIS
     168     658.39332595      19.96179266       3.198E+01   4251.22    <-- DIS
     169     658.39332595      19.96179266       3.198E+01   4276.67    <-- DIS
     170     658.39332595      19.96179266       3.198E+01   4302.14    <-- DIS
     171     658.39332595      19.96179266       3.198E+01   4327.60    <-- DIS
     172     658.39332595      19.96179266       3.198E+01   4353.07    <-- DIS
     173     658.39332595      19.96179266       3.198E+01   4378.53    <-- DIS
     174     658.39332595      19.96179266       3.198E+01   4404.00    <-- DIS
     175     658.39332595      19.96179266       3.198E+01   4429.46    <-- DIS
     176     658.39332595      19.96179266       3.198E+01   4454.92    <-- DIS
     177     658.39332595      19.96179266       3.198E+01   4480.38    <-- DIS
     178     658.39332595      19.96179266       3.198E+01   4505.83    <-- DIS
     179     658.39332595      19.96179266       3.198E+01   4531.29    <-- DIS
     180     658.39332595      19.96179266       3.198E+01   4556.75    <-- DIS
     181     658.39332595      19.96179266       3.198E+01   4582.22    <-- DIS
     182     658.39332595      19.96179266       3.198E+01   4607.75    <-- DIS
     183     658.39332595      19.96179266       3.198E+01   4633.26    <-- DIS
     184     658.39332595      19.96179266       3.198E+01   4658.77    <-- DIS
     185     658.39332595      19.96179266       3.198E+01   4684.29    <-- DIS
     186     658.39332595      19.96179266       3.198E+01   4709.80    <-- DIS
     187     658.39332595      19.96179266       3.198E+01   4735.31    <-- DIS
     188     658.39332595      19.96179266       3.198E+01   4760.81    <-- DIS
     189     658.39332595      19.96179266       3.198E+01   4786.30    <-- DIS
     190     658.39332595      19.96179266       3.198E+01   4811.80    <-- DIS
     191     658.39332595      19.96179266       3.198E+01   4837.30    <-- DIS
     192     658.39332595      19.96179266       3.198E+01   4862.81    <-- DIS
     193     658.39332595      19.96179266       3.198E+01   4888.30    <-- DIS
     194     658.39332595      19.96179266       3.198E+01   4913.77    <-- DIS
     195     658.39332595      19.96179266       3.198E+01   4939.23    <-- DIS
     196     658.39332595      19.96179266       3.198E+01   4964.70    <-- DIS
     197     658.39332595      19.96179266       3.198E+01   4990.17    <-- DIS
     198     658.39332595      19.96179266       3.198E+01   5015.64    <-- DIS
     199     658.39332595      19.96179266       3.198E+01   5041.10    <-- DIS
     200     658.39332595      19.96179266       3.198E+01   5066.56    <-- DIS

     <<< Warning: Maximum number of disentanglement iterations reached >>>
          <<< Disentanglement convergence criteria not satisfied >>>

        Final Omega_I    19.96179266 (Ang^2)

 +----------------------------------------------------------------------------+

 Time to disentangle bands   5093.214 (sec)

 Writing checkpoint file NiO.chk... done


 *------------------------------- WANNIERISE ---------------------------------*
 +--------------------------------------------------------------------+<-- CONV
 | Iter  Delta Spread     RMS Gradient      Spread (Ang^2)      Time  |<-- CONV
 +--------------------------------------------------------------------+<-- CONV

 ------------------------------------------------------------------------------
 Initial State
  WF centre and spread    1  (  2.088500,  2.088500,  2.088500 )     0.52522296
  WF centre and spread    2  (  2.088499,  2.088499,  2.088501 )     0.59700178
  WF centre and spread    3  (  2.088501,  2.088502,  2.088501 )     0.59702533
  WF centre and spread    4  (  2.088500,  2.088500,  2.088500 )     0.52522296
  WF centre and spread    5  (  2.088499,  2.088502,  2.088498 )     0.59704754
  WF centre and spread    6  ( -0.000000, -0.000001,  2.088500 )     0.52517865
  WF centre and spread    7  ( -0.000004,  0.000003,  2.088499 )     0.59699110
  WF centre and spread    8  ( -0.000001, -0.000001,  2.088499 )     0.59698362
  WF centre and spread    9  ( -0.000002, -0.000002,  2.088500 )     0.52516663
  WF centre and spread   10  (  0.000001, -0.000001,  2.088502 )     0.59711846
  WF centre and spread   11  (  0.000000,  2.088497, -0.000000 )     0.52515817
  WF centre and spread   12  (  0.000001,  2.088503, -0.000001 )     0.59709035
  WF centre and spread   13  ( -0.000001,  2.088502,  0.000000 )     0.59703003
  WF centre and spread   14  (  0.000000,  2.088501, -0.000000 )     0.52514582
  WF centre and spread   15  ( -0.000002,  2.088499,  0.000001 )     0.59702692
  WF centre and spread   16  (  2.088501, -0.000000, -0.000000 )     0.52516521
  WF centre and spread   17  (  2.088502,  0.000000,  0.000003 )     0.59700711
  WF centre and spread   18  (  2.088499, -0.000003, -0.000002 )     0.59711677
  WF centre and spread   19  (  2.088503, -0.000000, -0.000000 )     0.52518938
  WF centre and spread   20  (  2.088501,  0.000004,  0.000001 )     0.59700061
  WF centre and spread   21  (  0.000002,  0.000003, -0.000003 )     0.81924720
  WF centre and spread   22  (  0.000006, -0.000003, -0.000001 )     0.81924984
  WF centre and spread   23  (  0.000001, -0.000005, -0.000001 )     0.81922575
  WF centre and spread   24  ( -0.000000,  2.088500,  2.088499 )     0.81938819
  WF centre and spread   25  ( -0.000001,  2.088498,  2.088499 )     0.81941986
  WF centre and spread   26  (  0.000000,  2.088498,  2.088500 )     0.81940465
  WF centre and spread   27  (  2.088497,  0.000000,  2.088499 )     0.81942960
  WF centre and spread   28  (  2.088499,  0.000000,  2.088501 )     0.81944257
  WF centre and spread   29  (  2.088501,  0.000001,  2.088499 )     0.81945536
  WF centre and spread   30  (  2.088501,  2.088499,  0.000001 )     0.81941691
  WF centre and spread   31  (  2.088501,  2.088502, -0.000000 )     0.81940434
  WF centre and spread   32  (  2.088499,  2.088499,  0.000000 )     0.81940485
  Sum of centres and spreads ( 33.416001, 33.415998, 33.415997 )    21.19837854

      0     0.212E+02     0.0000000000       21.1983785379    5066.95  <-- CONV
        O_D=      0.0000000 O_OD=      1.2365859 O_TOT=     21.1983785 <-- SPRD
 ------------------------------------------------------------------------------
 Cycle:      1
  WF centre and spread    1  (  2.088500,  2.088500,  2.088500 )     0.52406073
  WF centre and spread    2  (  2.088499,  2.088499,  2.088501 )     0.59326001
  WF centre and spread    3  (  2.088501,  2.088503,  2.088501 )     0.59328548
  WF centre and spread    4  (  2.088500,  2.088500,  2.088500 )     0.52406073
  WF centre and spread    5  (  2.088499,  2.088502,  2.088498 )     0.59330812
  WF centre and spread    6  ( -0.000000, -0.000001,  2.088500 )     0.52401423
  WF centre and spread    7  ( -0.000004,  0.000002,  2.088499 )     0.59324854
  WF centre and spread    8  ( -0.000001, -0.000001,  2.088499 )     0.59323999
  WF centre and spread    9  ( -0.000002, -0.000002,  2.088500 )     0.52400229
  WF centre and spread   10  (  0.000001, -0.000001,  2.088502 )     0.59337939
  WF centre and spread   11  (  0.000000,  2.088497, -0.000000 )     0.52399333
  WF centre and spread   12  (  0.000001,  2.088502, -0.000001 )     0.59335116
  WF centre and spread   13  ( -0.000001,  2.088503,  0.000000 )     0.59328773
  WF centre and spread   14  (  0.000000,  2.088501, -0.000000 )     0.52398015
  WF centre and spread   15  ( -0.000002,  2.088499,  0.000001 )     0.59328440
  WF centre and spread   16  (  2.088501, -0.000000, -0.000000 )     0.52400092
  WF centre and spread   17  (  2.088502,  0.000000,  0.000003 )     0.59326509
  WF centre and spread   18  (  2.088499, -0.000003, -0.000002 )     0.59337767
  WF centre and spread   19  (  2.088503, -0.000000, -0.000000 )     0.52402517
  WF centre and spread   20  (  2.088501,  0.000004,  0.000001 )     0.59325786
  WF centre and spread   21  (  0.000002,  0.000003, -0.000003 )     0.80052061
  WF centre and spread   22  (  0.000006, -0.000003, -0.000001 )     0.80052343
  WF centre and spread   23  (  0.000001, -0.000005, -0.000001 )     0.80050165
  WF centre and spread   24  ( -0.000000,  2.088500,  2.088499 )     0.80064786
  WF centre and spread   25  ( -0.000001,  2.088498,  2.088499 )     0.80067468
  WF centre and spread   26  (  0.000000,  2.088498,  2.088500 )     0.80066311
  WF centre and spread   27  (  2.088497,  0.000000,  2.088499 )     0.80068700
  WF centre and spread   28  (  2.088499,  0.000000,  2.088501 )     0.80069911
  WF centre and spread   29  (  2.088501,  0.000001,  2.088499 )     0.80070681
  WF centre and spread   30  (  2.088501,  2.088499,  0.000001 )     0.80067168
  WF centre and spread   31  (  2.088501,  2.088502, -0.000000 )     0.80066324
  WF centre and spread   32  (  2.088499,  2.088499,  0.000000 )     0.80066359
  Sum of centres and spreads ( 33.416001, 33.415998, 33.415997 )    20.91930576

      1    -0.279E+00     1.3656588269       20.9193057600    5067.15  <-- CONV
        O_D=      0.0000000 O_OD=      0.9575131 O_TOT=     20.9193058 <-- SPRD
 Delta: O_D=  0.2088472E-09 O_OD= -0.2790728E+00 O_TOT= -0.2790728E+00 <-- DLTA
 ------------------------------------------------------------------------------
 Cycle:      2
  WF centre and spread    1  (  2.088500,  2.088500,  2.088500 )     0.52346002
  WF centre and spread    2  (  2.088499,  2.088499,  2.088501 )     0.59091074
  WF centre and spread    3  (  2.088501,  2.088503,  2.088501 )     0.59093787
  WF centre and spread    4  (  2.088500,  2.088500,  2.088500 )     0.52346002
  WF centre and spread    5  (  2.088499,  2.088502,  2.088498 )     0.59096110
  WF centre and spread    6  ( -0.000000, -0.000001,  2.088500 )     0.52340727
  WF centre and spread    7  ( -0.000004,  0.000002,  2.088499 )     0.59089941
  WF centre and spread    8  ( -0.000001, -0.000001,  2.088499 )     0.59088966
  WF centre and spread    9  ( -0.000002, -0.000002,  2.088500 )     0.52339785
  WF centre and spread   10  (  0.000001, -0.000001,  2.088502 )     0.59103586
  WF centre and spread   11  (  0.000000,  2.088497, -0.000000 )     0.52338758
  WF centre and spread   12  (  0.000001,  2.088502, -0.000001 )     0.59100658
  WF centre and spread   13  ( -0.000001,  2.088503,  0.000000 )     0.59093891
  WF centre and spread   14  (  0.000000,  2.088501, -0.000000 )     0.52337209
  WF centre and spread   15  ( -0.000002,  2.088499,  0.000001 )     0.59093565
  WF centre and spread   16  (  2.088501, -0.000000, -0.000000 )     0.52339584
  WF centre and spread   17  (  2.088502,  0.000000,  0.000003 )     0.59091662
  WF centre and spread   18  (  2.088499, -0.000003, -0.000002 )     0.59103412
  WF centre and spread   19  (  2.088503, -0.000000, -0.000000 )     0.52341930
  WF centre and spread   20  (  2.088501,  0.000004,  0.000001 )     0.59090886
  WF centre and spread   21  (  0.000002,  0.000003, -0.000003 )     0.78486346
  WF centre and spread   22  (  0.000005, -0.000003, -0.000001 )     0.78486650
  WF centre and spread   23  (  0.000001, -0.000004, -0.000000 )     0.78484690
  WF centre and spread   24  ( -0.000000,  2.088500,  2.088499 )     0.78498057
  WF centre and spread   25  ( -0.000001,  2.088499,  2.088499 )     0.78500408
  WF centre and spread   26  (  0.000000,  2.088498,  2.088499 )     0.78499460
  WF centre and spread   27  (  2.088497,  0.000000,  2.088499 )     0.78501768
  WF centre and spread   28  (  2.088499,  0.000000,  2.088501 )     0.78502882
  WF centre and spread   29  (  2.088500,  0.000001,  2.088499 )     0.78503315
  WF centre and spread   30  (  2.088500,  2.088499,  0.000001 )     0.78500117
  WF centre and spread   31  (  2.088500,  2.088502, -0.000000 )     0.78499544
  WF centre and spread   32  (  2.088499,  2.088499,  0.000000 )     0.78499557
  Sum of centres and spreads ( 33.416001, 33.415998, 33.415997 )    20.69830327

      2    -0.221E+00     1.7647898772       20.6983032678    5067.33  <-- CONV
        O_D=      0.0000000 O_OD=      0.7365106 O_TOT=     20.6983033 <-- SPRD
 Delta: O_D= -0.5780326E-11 O_OD= -0.2210025E+00 O_TOT= -0.2210025E+00 <-- DLTA
 ------------------------------------------------------------------------------
 Cycle:      3
  WF centre and spread    1  (  2.088500,  2.088500,  2.088500 )     0.52414897
  WF centre and spread    2  (  2.088499,  2.088499,  2.088501 )     0.58922205
  WF centre and spread    3  (  2.088501,  2.088503,  2.088501 )     0.58924931
  WF centre and spread    4  (  2.088500,  2.088500,  2.088500 )     0.52414897
  WF centre and spread    5  (  2.088499,  2.088502,  2.088498 )     0.58927279
  WF centre and spread    6  ( -0.000000, -0.000001,  2.088500 )     0.52409423
  WF centre and spread    7  ( -0.000004,  0.000002,  2.088499 )     0.58921037
  WF centre and spread    8  ( -0.000001, -0.000001,  2.088499 )     0.58920032
  WF centre and spread    9  ( -0.000002, -0.000002,  2.088500 )     0.52408583
  WF centre and spread   10  (  0.000001, -0.000001,  2.088502 )     0.58935049
  WF centre and spread   11  (  0.000000,  2.088497, -0.000000 )     0.52407489
  WF centre and spread   12  (  0.000001,  2.088502, -0.000001 )     0.58932066
  WF centre and spread   13  ( -0.000001,  2.088503,  0.000000 )     0.58925052
  WF centre and spread   14  (  0.000000,  2.088501, -0.000000 )     0.52405826
  WF centre and spread   15  ( -0.000002,  2.088499,  0.000001 )     0.58924697
  WF centre and spread   16  (  2.088501, -0.000000, -0.000000 )     0.52408359
  WF centre and spread   17  (  2.088502,  0.000000,  0.000003 )     0.58922775
  WF centre and spread   18  (  2.088499, -0.000003, -0.000002 )     0.58934878
  WF centre and spread   19  (  2.088503, -0.000000, -0.000000 )     0.52410682
  WF centre and spread   20  (  2.088501,  0.000004,  0.000001 )     0.58921952
  WF centre and spread   21  (  0.000002,  0.000003, -0.000003 )     0.77751461
  WF centre and spread   22  (  0.000005, -0.000002, -0.000001 )     0.77751776
  WF centre and spread   23  (  0.000001, -0.000004, -0.000000 )     0.77749894
  WF centre and spread   24  ( -0.000000,  2.088500,  2.088500 )     0.77762747
  WF centre and spread   25  ( -0.000001,  2.088499,  2.088499 )     0.77765060
  WF centre and spread   26  (  0.000000,  2.088498,  2.088499 )     0.77764092
  WF centre and spread   27  (  2.088498,  0.000000,  2.088499 )     0.77766320
  WF centre and spread   28  (  2.088499,  0.000000,  2.088501 )     0.77767396
  WF centre and spread   29  (  2.088500,  0.000001,  2.088499 )     0.77767916
  WF centre and spread   30  (  2.088500,  2.088499,  0.000001 )     0.77764778
  WF centre and spread   31  (  2.088500,  2.088502, -0.000000 )     0.77764194
  WF centre and spread   32  (  2.088499,  2.088499,  0.000000 )     0.77764210
  Sum of centres and spreads ( 33.416001, 33.415998, 33.415997 )    20.59531955

      3    -0.103E+00     1.3571216020       20.5953195473    5067.52  <-- CONV
        O_D=      0.0000000 O_OD=      0.6335269 O_TOT=     20.5953195 <-- SPRD
 Delta: O_D= -0.6139061E-10 O_OD= -0.1029837E+00 O_TOT= -0.1029837E+00 <-- DLTA
 ------------------------------------------------------------------------------
 Cycle:      4
  WF centre and spread    1  (  2.088500,  2.088500,  2.088500 )     0.52467929
  WF centre and spread    2  (  2.088499,  2.088499,  2.088501 )     0.58793259
  WF centre and spread    3  (  2.088501,  2.088503,  2.088501 )     0.58795971
  WF centre and spread    4  (  2.088500,  2.088500,  2.088500 )     0.52467929
  WF centre and spread    5  (  2.088499,  2.088502,  2.088498 )     0.58798331
  WF centre and spread    6  ( -0.000000, -0.000001,  2.088500 )     0.52462315
  WF centre and spread    7  ( -0.000004,  0.000002,  2.088499 )     0.58791927
  WF centre and spread    8  ( -0.000001, -0.000001,  2.088499 )     0.58790859
  WF centre and spread    9  ( -0.000002, -0.000002,  2.088500 )     0.52461440
  WF centre and spread   10  (  0.000001, -0.000001,  2.088502 )     0.58805945
  WF centre and spread   11  (  0.000000,  2.088497, -0.000000 )     0.52460313
  WF centre and spread   12  (  0.000001,  2.088502, -0.000001 )     0.58802933
  WF centre and spread   13  ( -0.000001,  2.088503,  0.000000 )     0.58795919
  WF centre and spread   14  (  0.000000,  2.088501, -0.000000 )     0.52458603
  WF centre and spread   15  ( -0.000002,  2.088499,  0.000001 )     0.58795565
  WF centre and spread   16  (  2.088501, -0.000000, -0.000000 )     0.52461210
  WF centre and spread   17  (  2.088503,  0.000000,  0.000003 )     0.58793680
  WF centre and spread   18  (  2.088499, -0.000003, -0.000002 )     0.58805776
  WF centre and spread   19  (  2.088503, -0.000000, -0.000000 )     0.52463619
  WF centre and spread   20  (  2.088501,  0.000004,  0.000001 )     0.58792808
  WF centre and spread   21  (  0.000002,  0.000002, -0.000003 )     0.77198076
  WF centre and spread   22  (  0.000005, -0.000002, -0.000001 )     0.77198388
  WF centre and spread   23  (  0.000001, -0.000004, -0.000000 )     0.77196659
  WF centre and spread   24  ( -0.000000,  2.088500,  2.088500 )     0.77209419
  WF centre and spread   25  ( -0.000001,  2.088499,  2.088499 )     0.77211310
  WF centre and spread   26  (  0.000000,  2.088498,  2.088500 )     0.77210743
  WF centre and spread   27  (  2.088498,  0.000000,  2.088499 )     0.77212824
  WF centre and spread   28  (  2.088499,  0.000000,  2.088501 )     0.77213873
  WF centre and spread   29  (  2.088500,  0.000001,  2.088499 )     0.77214190
  WF centre and spread   30  (  2.088500,  2.088499,  0.000001 )     0.77211032
  WF centre and spread   31  (  2.088500,  2.088502, -0.000000 )     0.77210803
  WF centre and spread   32  (  2.088499,  2.088499,  0.000000 )     0.77210852
  Sum of centres and spreads ( 33.416001, 33.415998, 33.415997 )    20.51764498

      4    -0.777E-01     1.0719552348       20.5176449668    5067.71  <-- CONV
        O_D=      0.0000000 O_OD=      0.5558523 O_TOT=     20.5176450 <-- SPRD
 Delta: O_D=  0.1546197E-09 O_OD= -0.7767458E-01 O_TOT= -0.7767458E-01 <-- DLTA
 ------------------------------------------------------------------------------
 Cycle:      5
  WF centre and spread    1  (  2.088500,  2.088500,  2.088500 )     0.52486151
  WF centre and spread    2  (  2.088499,  2.088499,  2.088501 )     0.58743700
  WF centre and spread    3  (  2.088501,  2.088503,  2.088501 )     0.58746418
  WF centre and spread    4  (  2.088500,  2.088500,  2.088500 )     0.52486151
  WF centre and spread    5  (  2.088499,  2.088502,  2.088498 )     0.58748790
  WF centre and spread    6  ( -0.000000, -0.000001,  2.088500 )     0.52480420
  WF centre and spread    7  ( -0.000004,  0.000002,  2.088499 )     0.58742348
  WF centre and spread    8  ( -0.000001, -0.000001,  2.088499 )     0.58741235
  WF centre and spread    9  ( -0.000002, -0.000002,  2.088500 )     0.52479626
  WF centre and spread   10  (  0.000001, -0.000001,  2.088502 )     0.58756455
  WF centre and spread   11  (  0.000000,  2.088497, -0.000000 )     0.52478464
  WF centre and spread   12  (  0.000001,  2.088502, -0.000001 )     0.58753439
  WF centre and spread   13  ( -0.000001,  2.088503,  0.000000 )     0.58746314
  WF centre and spread   14  (  0.000000,  2.088501, -0.000000 )     0.52476690
  WF centre and spread   15  ( -0.000002,  2.088499,  0.000001 )     0.58745974
  WF centre and spread   16  (  2.088501, -0.000000, -0.000000 )     0.52479373
  WF centre and spread   17  (  2.088503,  0.000000,  0.000003 )     0.58744112
  WF centre and spread   18  (  2.088499, -0.000003, -0.000002 )     0.58756283
  WF centre and spread   19  (  2.088503, -0.000000, -0.000000 )     0.52481759
  WF centre and spread   20  (  2.088501,  0.000004,  0.000001 )     0.58743233
  WF centre and spread   21  (  0.000002,  0.000002, -0.000003 )     0.76960289
  WF centre and spread   22  (  0.000005, -0.000002, -0.000001 )     0.76960598
  WF centre and spread   23  (  0.000001, -0.000004, -0.000000 )     0.76958980
  WF centre and spread   24  ( -0.000000,  2.088500,  2.088500 )     0.76971629
  WF centre and spread   25  ( -0.000001,  2.088499,  2.088499 )     0.76973581
  WF centre and spread   26  (  0.000000,  2.088498,  2.088500 )     0.76972966
  WF centre and spread   27  (  2.088498,  0.000000,  2.088499 )     0.76974987
  WF centre and spread   28  (  2.088499,  0.000000,  2.088501 )     0.76976028
  WF centre and spread   29  (  2.088500,  0.000001,  2.088499 )     0.76976435
  WF centre and spread   30  (  2.088500,  2.088499,  0.000001 )     0.76973299
  WF centre and spread   31  (  2.088500,  2.088502, -0.000000 )     0.76972993
  WF centre and spread   32  (  2.088499,  2.088499,  0.000000 )     0.76973070
  Sum of centres and spreads ( 33.416001, 33.415998, 33.415997 )    20.48461788

      5    -0.330E-01     0.8455091992       20.4846178720    5067.89  <-- CONV
        O_D=      0.0000000 O_OD=      0.5228252 O_TOT=     20.4846179 <-- SPRD
 Delta: O_D= -0.3601319E-09 O_OD= -0.3302709E-01 O_TOT= -0.3302709E-01 <-- DLTA
 ------------------------------------------------------------------------------
 Cycle:      6
  WF centre and spread    1  (  2.088500,  2.088500,  2.088500 )     0.52476843
  WF centre and spread    2  (  2.088499,  2.088499,  2.088501 )     0.58713769
  WF centre and spread    3  (  2.088501,  2.088503,  2.088501 )     0.58716491
  WF centre and spread    4  (  2.088500,  2.088500,  2.088500 )     0.52476843
  WF centre and spread    5  (  2.088499,  2.088502,  2.088498 )     0.58718865
  WF centre and spread    6  ( -0.000000, -0.000001,  2.088500 )     0.52471084
  WF centre and spread    7  ( -0.000004,  0.000002,  2.088499 )     0.58712415
  WF centre and spread    8  ( -0.000001, -0.000001,  2.088499 )     0.58711291
  WF centre and spread    9  ( -0.000002, -0.000002,  2.088500 )     0.52470303
  WF centre and spread   10  (  0.000001, -0.000001,  2.088502 )     0.58726582
  WF centre and spread   11  (  0.000000,  2.088497, -0.000000 )     0.52469133
  WF centre and spread   12  (  0.000001,  2.088502, -0.000001 )     0.58723580
  WF centre and spread   13  ( -0.000001,  2.088503,  0.000000 )     0.58716393
  WF centre and spread   14  (  0.000000,  2.088501, -0.000000 )     0.52467343
  WF centre and spread   15  ( -0.000002,  2.088499,  0.000001 )     0.58716053
  WF centre and spread   16  (  2.088501, -0.000000, -0.000000 )     0.52470045
  WF centre and spread   17  (  2.088503,  0.000000,  0.000003 )     0.58714177
  WF centre and spread   18  (  2.088499, -0.000003, -0.000002 )     0.58726407
  WF centre and spread   19  (  2.088503, -0.000000, -0.000000 )     0.52472428
  WF centre and spread   20  (  2.088501,  0.000004,  0.000001 )     0.58713303
  WF centre and spread   21  (  0.000002,  0.000002, -0.000003 )     0.76830089
  WF centre and spread   22  (  0.000005, -0.000002, -0.000001 )     0.76830393
  WF centre and spread   23  (  0.000001, -0.000004, -0.000000 )     0.76828806
  WF centre and spread   24  ( -0.000000,  2.088500,  2.088500 )     0.76841423
  WF centre and spread   25  ( -0.000001,  2.088499,  2.088499 )     0.76843322
  WF centre and spread   26  (  0.000000,  2.088498,  2.088500 )     0.76842767
  WF centre and spread   27  (  2.088498,  0.000000,  2.088499 )     0.76844753
  WF centre and spread   28  (  2.088499,  0.000000,  2.088501 )     0.76845796
  WF centre and spread   29  (  2.088500,  0.000001,  2.088499 )     0.76846149
  WF centre and spread   30  (  2.088500,  2.088499,  0.000001 )     0.76843033
  WF centre and spread   31  (  2.088500,  2.088502, -0.000000 )     0.76842782
  WF centre and spread   32  (  2.088500,  2.088499,  0.000000 )     0.76842858
  Sum of centres and spreads ( 33.416001, 33.415998, 33.415997 )    20.46465520

      6    -0.200E-01     0.5061965950       20.4646551896    5068.08  <-- CONV
        O_D=      0.0000000 O_OD=      0.5028625 O_TOT=     20.4646552 <-- SPRD
 Delta: O_D=  0.4830730E-09 O_OD= -0.1996268E-01 O_TOT= -0.1996268E-01 <-- DLTA
 ------------------------------------------------------------------------------
 Cycle:      7
  WF centre and spread    1  (  2.088500,  2.088500,  2.088500 )     0.52453451
  WF centre and spread    2  (  2.088499,  2.088499,  2.088501 )     0.58696076
  WF centre and spread    3  (  2.088501,  2.088503,  2.088501 )     0.58698814
  WF centre and spread    4  (  2.088500,  2.088500,  2.088500 )     0.52453451
  WF centre and spread    5  (  2.088499,  2.088502,  2.088498 )     0.58701182
  WF centre and spread    6  ( -0.000000, -0.000001,  2.088500 )     0.52447693
  WF centre and spread    7  ( -0.000004,  0.000002,  2.088499 )     0.58694732
  WF centre and spread    8  ( -0.000001, -0.000001,  2.088499 )     0.58693621
  WF centre and spread    9  ( -0.000002, -0.000002,  2.088500 )     0.52446916
  WF centre and spread   10  (  0.000001, -0.000001,  2.088502 )     0.58708908
  WF centre and spread   11  (  0.000000,  2.088497, -0.000000 )     0.52445747
  WF centre and spread   12  (  0.000001,  2.088502, -0.000001 )     0.58705904
  WF centre and spread   13  ( -0.000001,  2.088503,  0.000000 )     0.58698703
  WF centre and spread   14  (  0.000000,  2.088501, -0.000000 )     0.52443957
  WF centre and spread   15  ( -0.000002,  2.088499,  0.000001 )     0.58698364
  WF centre and spread   16  (  2.088501, -0.000000, -0.000000 )     0.52446659
  WF centre and spread   17  (  2.088503,  0.000000,  0.000003 )     0.58696493
  WF centre and spread   18  (  2.088499, -0.000003, -0.000002 )     0.58708735
  WF centre and spread   19  (  2.088504, -0.000000, -0.000000 )     0.52449033
  WF centre and spread   20  (  2.088501,  0.000004,  0.000001 )     0.58695625
  WF centre and spread   21  (  0.000002,  0.000002, -0.000003 )     0.76790764
  WF centre and spread   22  (  0.000005, -0.000002, -0.000001 )     0.76791070
  WF centre and spread   23  (  0.000001, -0.000004, -0.000000 )     0.76789468
  WF centre and spread   24  ( -0.000000,  2.088500,  2.088500 )     0.76802105
  WF centre and spread   25  ( -0.000001,  2.088499,  2.088499 )     0.76803996
  WF centre and spread   26  (  0.000000,  2.088498,  2.088500 )     0.76803434
  WF centre and spread   27  (  2.088498,  0.000000,  2.088499 )     0.76805431
  WF centre and spread   28  (  2.088499,  0.000000,  2.088501 )     0.76806475
  WF centre and spread   29  (  2.088500,  0.000001,  2.088499 )     0.76806834
  WF centre and spread   30  (  2.088500,  2.088499,  0.000001 )     0.76803709
  WF centre and spread   31  (  2.088500,  2.088502, -0.000000 )     0.76803459
  WF centre and spread   32  (  2.088500,  2.088499,  0.000000 )     0.76803526
  Sum of centres and spreads ( 33.416001, 33.415998, 33.415997 )    20.45594337

      7    -0.871E-02     0.4678087109       20.4559433516    5068.27  <-- CONV
        O_D=      0.0000000 O_OD=      0.4941507 O_TOT=     20.4559434 <-- SPRD
 Delta: O_D=  0.1919165E-09 O_OD= -0.8711838E-02 O_TOT= -0.8711838E-02 <-- DLTA
 ------------------------------------------------------------------------------
 Cycle:      8
  WF centre and spread    1  (  2.088500,  2.088500,  2.088500 )     0.52422881
  WF centre and spread    2  (  2.088499,  2.088499,  2.088501 )     0.58682292
  WF centre and spread    3  (  2.088501,  2.088503,  2.088501 )     0.58685029
  WF centre and spread    4  (  2.088500,  2.088500,  2.088500 )     0.52422881
  WF centre and spread    5  (  2.088499,  2.088502,  2.088498 )     0.58687384
  WF centre and spread    6  ( -0.000000, -0.000001,  2.088500 )     0.52417155
  WF centre and spread    7  ( -0.000004,  0.000002,  2.088499 )     0.58680940
  WF centre and spread    8  ( -0.000001, -0.000001,  2.088499 )     0.58679858
  WF centre and spread    9  ( -0.000002, -0.000002,  2.088500 )     0.52416367
  WF centre and spread   10  (  0.000001, -0.000001,  2.088502 )     0.58695121
  WF centre and spread   11  (  0.000000,  2.088497, -0.000000 )     0.52415199
  WF centre and spread   12  (  0.000001,  2.088502, -0.000001 )     0.58692110
  WF centre and spread   13  ( -0.000001,  2.088503,  0.000000 )     0.58684924
  WF centre and spread   14  (  0.000000,  2.088501, -0.000000 )     0.52413412
  WF centre and spread   15  ( -0.000002,  2.088499,  0.000001 )     0.58684578
  WF centre and spread   16  (  2.088501, -0.000000, -0.000000 )     0.52416110
  WF centre and spread   17  (  2.088503,  0.000000,  0.000003 )     0.58682690
  WF centre and spread   18  (  2.088499, -0.000003, -0.000002 )     0.58694950
  WF centre and spread   19  (  2.088504, -0.000000, -0.000000 )     0.52418498
  WF centre and spread   20  (  2.088501,  0.000004,  0.000001 )     0.58681841
  WF centre and spread   21  (  0.000002,  0.000002, -0.000003 )     0.76753978
  WF centre and spread   22  (  0.000005, -0.000002, -0.000001 )     0.76754286
  WF centre and spread   23  (  0.000001, -0.000004, -0.000000 )     0.76752640
  WF centre and spread   24  ( -0.000000,  2.088500,  2.088500 )     0.76765309
  WF centre and spread   25  ( -0.000001,  2.088499,  2.088499 )     0.76767180
  WF centre and spread   26  (  0.000000,  2.088498,  2.088500 )     0.76766605
  WF centre and spread   27  (  2.088498,  0.000000,  2.088499 )     0.76768635
  WF centre and spread   28  (  2.088499,  0.000000,  2.088501 )     0.76769684
  WF centre and spread   29  (  2.088500,  0.000001,  2.088499 )     0.76770028
  WF centre and spread   30  (  2.088500,  2.088499,  0.000001 )     0.76766895
  WF centre and spread   31  (  2.088500,  2.088502, -0.000000 )     0.76766658
  WF centre and spread   32  (  2.088500,  2.088499,  0.000000 )     0.76766701
  Sum of centres and spreads ( 33.416001, 33.415998, 33.415997 )    20.44742819

      8    -0.852E-02     0.3101014360       20.4474281680    5068.45  <-- CONV
        O_D=      0.0000000 O_OD=      0.4856355 O_TOT=     20.4474282 <-- SPRD
 Delta: O_D=  0.2380850E-08 O_OD= -0.8515186E-02 O_TOT= -0.8515184E-02 <-- DLTA
 ------------------------------------------------------------------------------
 Cycle:      9
  WF centre and spread    1  (  2.088500,  2.088500,  2.088500 )     0.52404007
  WF centre and spread    2  (  2.088499,  2.088499,  2.088501 )     0.58674115
  WF centre and spread    3  (  2.088501,  2.088503,  2.088501 )     0.58676850
  WF centre and spread    4  (  2.088500,  2.088500,  2.088500 )     0.52404007
  WF centre and spread    5  (  2.088499,  2.088502,  2.088498 )     0.58679203
  WF centre and spread    6  ( -0.000000, -0.000001,  2.088500 )     0.52398266
  WF centre and spread    7  ( -0.000004,  0.000002,  2.088499 )     0.58672751
  WF centre and spread    8  ( -0.000001, -0.000001,  2.088499 )     0.58671677
  WF centre and spread    9  ( -0.000002, -0.000002,  2.088500 )     0.52397495
  WF centre and spread   10  (  0.000001, -0.000001,  2.088502 )     0.58686940
  WF centre and spread   11  (  0.000000,  2.088497, -0.000000 )     0.52396322
  WF centre and spread   12  (  0.000001,  2.088502, -0.000001 )     0.58683931
  WF centre and spread   13  ( -0.000001,  2.088503,  0.000000 )     0.58676739
  WF centre and spread   14  (  0.000000,  2.088501, -0.000000 )     0.52394527
  WF centre and spread   15  ( -0.000002,  2.088499,  0.000001 )     0.58676390
  WF centre and spread   16  (  2.088501, -0.000000, -0.000000 )     0.52397234
  WF centre and spread   17  (  2.088503,  0.000000,  0.000003 )     0.58674497
  WF centre and spread   18  (  2.088499, -0.000003, -0.000002 )     0.58686769
  WF centre and spread   19  (  2.088503, -0.000000, -0.000000 )     0.52399614
  WF centre and spread   20  (  2.088501,  0.000004,  0.000001 )     0.58673659
  WF centre and spread   21  (  0.000002,  0.000002, -0.000003 )     0.76727306
  WF centre and spread   22  (  0.000005, -0.000002, -0.000001 )     0.76727616
  WF centre and spread   23  (  0.000001, -0.000004, -0.000000 )     0.76725956
  WF centre and spread   24  ( -0.000000,  2.088500,  2.088500 )     0.76738606
  WF centre and spread   25  ( -0.000001,  2.088499,  2.088499 )     0.76740497
  WF centre and spread   26  (  0.000000,  2.088498,  2.088499 )     0.76739885
  WF centre and spread   27  (  2.088498,  0.000000,  2.088499 )     0.76741933
  WF centre and spread   28  (  2.088499,  0.000000,  2.088501 )     0.76742987
  WF centre and spread   29  (  2.088500,  0.000001,  2.088499 )     0.76743333
  WF centre and spread   30  (  2.088500,  2.088499,  0.000001 )     0.76740211
  WF centre and spread   31  (  2.088500,  2.088502, -0.000000 )     0.76739946
  WF centre and spread   32  (  2.088500,  2.088499,  0.000000 )     0.76739980
  Sum of centres and spreads ( 33.416001, 33.415998, 33.415997 )    20.44173250

      9    -0.570E-02     0.3087761174       20.4417324832    5068.64  <-- CONV
        O_D=      0.0000000 O_OD=      0.4799398 O_TOT=     20.4417325 <-- SPRD
 Delta: O_D=  0.1074368E-08 O_OD= -0.5695686E-02 O_TOT= -0.5695685E-02 <-- DLTA
 ------------------------------------------------------------------------------
 Cycle:     10
  WF centre and spread    1  (  2.088500,  2.088500,  2.088500 )     0.52398483
  WF centre and spread    2  (  2.088499,  2.088499,  2.088501 )     0.58666265
  WF centre and spread    3  (  2.088501,  2.088503,  2.088501 )     0.58668997
  WF centre and spread    4  (  2.088500,  2.088500,  2.088500 )     0.52398483
  WF centre and spread    5  (  2.088499,  2.088502,  2.088498 )     0.58671350
  WF centre and spread    6  ( -0.000000, -0.000001,  2.088500 )     0.52392739
  WF centre and spread    7  ( -0.000004,  0.000002,  2.088499 )     0.58664905
  WF centre and spread    8  ( -0.000001, -0.000001,  2.088499 )     0.58663829
  WF centre and spread    9  ( -0.000002, -0.000002,  2.088500 )     0.52391973
  WF centre and spread   10  (  0.000001, -0.000001,  2.088502 )     0.58679090
  WF centre and spread   11  (  0.000000,  2.088497, -0.000000 )     0.52390798
  WF centre and spread   12  (  0.000001,  2.088502, -0.000001 )     0.58676082
  WF centre and spread   13  ( -0.000001,  2.088503,  0.000000 )     0.58668889
  WF centre and spread   14  (  0.000000,  2.088501, -0.000000 )     0.52388998
  WF centre and spread   15  ( -0.000002,  2.088499,  0.000001 )     0.58668543
  WF centre and spread   16  (  2.088501, -0.000000, -0.000000 )     0.52391711
  WF centre and spread   17  (  2.088503,  0.000000,  0.000003 )     0.58666651
  WF centre and spread   18  (  2.088499, -0.000003, -0.000002 )     0.58678919
  WF centre and spread   19  (  2.088503, -0.000000, -0.000000 )     0.52394091
  WF centre and spread   20  (  2.088501,  0.000004,  0.000001 )     0.58665812
  WF centre and spread   21  (  0.000002,  0.000002, -0.000003 )     0.76717782
  WF centre and spread   22  (  0.000005, -0.000002, -0.000001 )     0.76718093
  WF centre and spread   23  (  0.000001, -0.000004, -0.000000 )     0.76716435
  WF centre and spread   24  ( -0.000000,  2.088500,  2.088500 )     0.76729091
  WF centre and spread   25  ( -0.000001,  2.088499,  2.088499 )     0.76730999
  WF centre and spread   26  (  0.000000,  2.088498,  2.088499 )     0.76730369
  WF centre and spread   27  (  2.088498,  0.000000,  2.088499 )     0.76732415
  WF centre and spread   28  (  2.088499,  0.000000,  2.088501 )     0.76733474
  WF centre and spread   29  (  2.088500,  0.000001,  2.088499 )     0.76733832
  WF centre and spread   30  (  2.088500,  2.088499,  0.000001 )     0.76730711
  WF centre and spread   31  (  2.088500,  2.088502, -0.000000 )     0.76730424
  WF centre and spread   32  (  2.088500,  2.088499,  0.000000 )     0.76730462
  Sum of centres and spreads ( 33.416001, 33.415998, 33.415997 )    20.43920695

     10    -0.253E-02     0.2208762330       20.4392069282    5068.83  <-- CONV
        O_D=      0.0000000 O_OD=      0.4774143 O_TOT=     20.4392069 <-- SPRD
 Delta: O_D= -0.6247972E-09 O_OD= -0.2525554E-02 O_TOT= -0.2525555E-02 <-- DLTA
 ------------------------------------------------------------------------------
 Cycle:     11
  WF centre and spread    1  (  2.088500,  2.088500,  2.088500 )     0.52400682
  WF centre and spread    2  (  2.088499,  2.088499,  2.088501 )     0.58658996
  WF centre and spread    3  (  2.088501,  2.088503,  2.088501 )     0.58661723
  WF centre and spread    4  (  2.088500,  2.088500,  2.088500 )     0.52400682
  WF centre and spread    5  (  2.088499,  2.088502,  2.088498 )     0.58664075
  WF centre and spread    6  ( -0.000000, -0.000001,  2.088500 )     0.52394942
  WF centre and spread    7  ( -0.000004,  0.000002,  2.088499 )     0.58657643
  WF centre and spread    8  ( -0.000001, -0.000001,  2.088499 )     0.58656569
  WF centre and spread    9  ( -0.000002, -0.000002,  2.088500 )     0.52394170
  WF centre and spread   10  (  0.000001, -0.000001,  2.088502 )     0.58671821
  WF centre and spread   11  (  0.000000,  2.088497, -0.000000 )     0.52392995
  WF centre and spread   12  (  0.000001,  2.088502, -0.000001 )     0.58668814
  WF centre and spread   13  ( -0.000001,  2.088503,  0.000000 )     0.58661630
  WF centre and spread   14  (  0.000000,  2.088501, -0.000000 )     0.52391197
  WF centre and spread   15  ( -0.000002,  2.088499,  0.000001 )     0.58661285
  WF centre and spread   16  (  2.088501, -0.000000, -0.000000 )     0.52393910
  WF centre and spread   17  (  2.088503,  0.000000,  0.000003 )     0.58659387
  WF centre and spread   18  (  2.088499, -0.000003, -0.000002 )     0.58671651
  WF centre and spread   19  (  2.088503, -0.000000, -0.000000 )     0.52396292
  WF centre and spread   20  (  2.088501,  0.000004,  0.000001 )     0.58658548
  WF centre and spread   21  (  0.000002,  0.000002, -0.000003 )     0.76710112
  WF centre and spread   22  (  0.000005, -0.000002, -0.000001 )     0.76710424
  WF centre and spread   23  (  0.000001, -0.000004, -0.000000 )     0.76708772
  WF centre and spread   24  ( -0.000000,  2.088500,  2.088500 )     0.76721448
  WF centre and spread   25  ( -0.000001,  2.088499,  2.088499 )     0.76723354
  WF centre and spread   26  (  0.000000,  2.088498,  2.088500 )     0.76722734
  WF centre and spread   27  (  2.088498,  0.000000,  2.088499 )     0.76724773
  WF centre and spread   28  (  2.088499,  0.000000,  2.088501 )     0.76725836
  WF centre and spread   29  (  2.088500,  0.000001,  2.088499 )     0.76726195
  WF centre and spread   30  (  2.088500,  2.088499,  0.000001 )     0.76723064
  WF centre and spread   31  (  2.088500,  2.088502, -0.000000 )     0.76722783
  WF centre and spread   32  (  2.088500,  2.088499,  0.000000 )     0.76722826
  Sum of centres and spreads ( 33.416001, 33.415998, 33.415997 )    20.43759335

     11    -0.161E-02     0.1561695098       20.4375933199    5069.01  <-- CONV
        O_D=      0.0000000 O_OD=      0.4758006 O_TOT=     20.4375933 <-- SPRD
 Delta: O_D=  0.1611157E-08 O_OD= -0.1613610E-02 O_TOT= -0.1613608E-02 <-- DLTA
 ------------------------------------------------------------------------------
 Cycle:     12
  WF centre and spread    1  (  2.088500,  2.088500,  2.088500 )     0.52403486
  WF centre and spread    2  (  2.088499,  2.088499,  2.088501 )     0.58657153
  WF centre and spread    3  (  2.088501,  2.088503,  2.088501 )     0.58659880
  WF centre and spread    4  (  2.088500,  2.088500,  2.088500 )     0.52403486
  WF centre and spread    5  (  2.088499,  2.088502,  2.088498 )     0.58662231
  WF centre and spread    6  ( -0.000000, -0.000001,  2.088500 )     0.52397734
  WF centre and spread    7  ( -0.000004,  0.000002,  2.088499 )     0.58655804
  WF centre and spread    8  ( -0.000001, -0.000001,  2.088499 )     0.58654724
  WF centre and spread    9  ( -0.000002, -0.000002,  2.088500 )     0.52396963
  WF centre and spread   10  (  0.000001, -0.000001,  2.088502 )     0.58669988
  WF centre and spread   11  (  0.000000,  2.088497, -0.000000 )     0.52395787
  WF centre and spread   12  (  0.000001,  2.088502, -0.000001 )     0.58666980
  WF centre and spread   13  ( -0.000001,  2.088503,  0.000000 )     0.58659786
  WF centre and spread   14  (  0.000000,  2.088501, -0.000000 )     0.52393987
  WF centre and spread   15  ( -0.000002,  2.088499,  0.000001 )     0.58659444
  WF centre and spread   16  (  2.088501, -0.000000, -0.000000 )     0.52396702
  WF centre and spread   17  (  2.088503,  0.000000,  0.000003 )     0.58657548
  WF centre and spread   18  (  2.088499, -0.000003, -0.000002 )     0.58669817
  WF centre and spread   19  (  2.088503, -0.000000, -0.000000 )     0.52399087
  WF centre and spread   20  (  2.088501,  0.000004,  0.000001 )     0.58656708
  WF centre and spread   21  (  0.000002,  0.000002, -0.000003 )     0.76703286
  WF centre and spread   22  (  0.000005, -0.000002, -0.000001 )     0.76703596
  WF centre and spread   23  (  0.000001, -0.000004, -0.000000 )     0.76701953
  WF centre and spread   24  ( -0.000000,  2.088500,  2.088500 )     0.76714640
  WF centre and spread   25  ( -0.000001,  2.088499,  2.088499 )     0.76716534
  WF centre and spread   26  (  0.000000,  2.088498,  2.088500 )     0.76715927
  WF centre and spread   27  (  2.088498,  0.000000,  2.088499 )     0.76717958
  WF centre and spread   28  (  2.088499,  0.000000,  2.088501 )     0.76719019
  WF centre and spread   29  (  2.088500,  0.000001,  2.088499 )     0.76719382
  WF centre and spread   30  (  2.088500,  2.088499,  0.000001 )     0.76716244
  WF centre and spread   31  (  2.088500,  2.088502, -0.000000 )     0.76715975
  WF centre and spread   32  (  2.088500,  2.088499,  0.000000 )     0.76716018
  Sum of centres and spreads ( 33.416001, 33.415998, 33.415997 )    20.43677827

     12    -0.815E-03     0.1234115406       20.4367782413    5069.20  <-- CONV
        O_D=      0.0000000 O_OD=      0.4749856 O_TOT=     20.4367782 <-- SPRD
 Delta: O_D= -0.8296890E-09 O_OD= -0.8150777E-03 O_TOT= -0.8150786E-03 <-- DLTA
 ------------------------------------------------------------------------------
 Cycle:     13
  WF centre and spread    1  (  2.088500,  2.088500,  2.088500 )     0.52415678
  WF centre and spread    2  (  2.088499,  2.088499,  2.088501 )     0.58658629
  WF centre and spread    3  (  2.088501,  2.088503,  2.088501 )     0.58661357
  WF centre and spread    4  (  2.088500,  2.088500,  2.088500 )     0.52415678
  WF centre and spread    5  (  2.088499,  2.088502,  2.088498 )     0.58663709
  WF centre and spread    6  ( -0.000000, -0.000001,  2.088500 )     0.52409926
  WF centre and spread    7  ( -0.000004,  0.000002,  2.088499 )     0.58657275
  WF centre and spread    8  ( -0.000001, -0.000001,  2.088499 )     0.58656195
  WF centre and spread    9  ( -0.000002, -0.000002,  2.088500 )     0.52409153
  WF centre and spread   10  (  0.000001, -0.000001,  2.088502 )     0.58671471
  WF centre and spread   11  (  0.000000,  2.088497, -0.000000 )     0.52407976
  WF centre and spread   12  (  0.000001,  2.088502, -0.000001 )     0.58668460
  WF centre and spread   13  ( -0.000001,  2.088503,  0.000000 )     0.58661260
  WF centre and spread   14  (  0.000000,  2.088501, -0.000000 )     0.52406175
  WF centre and spread   15  ( -0.000002,  2.088499,  0.000001 )     0.58660917
  WF centre and spread   16  (  2.088501, -0.000000, -0.000000 )     0.52408892
  WF centre and spread   17  (  2.088503,  0.000000,  0.000003 )     0.58659020
  WF centre and spread   18  (  2.088499, -0.000003, -0.000002 )     0.58671300
  WF centre and spread   19  (  2.088503, -0.000000, -0.000000 )     0.52411278
  WF centre and spread   20  (  2.088501,  0.000004,  0.000001 )     0.58658180
  WF centre and spread   21  (  0.000002,  0.000002, -0.000003 )     0.76691420
  WF centre and spread   22  (  0.000005, -0.000002, -0.000001 )     0.76691729
  WF centre and spread   23  (  0.000001, -0.000004, -0.000000 )     0.76690088
  WF centre and spread   24  ( -0.000000,  2.088500,  2.088500 )     0.76702756
  WF centre and spread   25  ( -0.000001,  2.088499,  2.088499 )     0.76704634
  WF centre and spread   26  (  0.000000,  2.088498,  2.088500 )     0.76704040
  WF centre and spread   27  (  2.088498,  0.000000,  2.088499 )     0.76706069
  WF centre and spread   28  (  2.088499,  0.000000,  2.088501 )     0.76707129
  WF centre and spread   29  (  2.088500,  0.000001,  2.088499 )     0.76707478
  WF centre and spread   30  (  2.088500,  2.088499,  0.000001 )     0.76704345
  WF centre and spread   31  (  2.088500,  2.088502, -0.000000 )     0.76704089
  WF centre and spread   32  (  2.088500,  2.088499,  0.000000 )     0.76704131
  Sum of centres and spreads ( 33.416001, 33.415998, 33.415997 )    20.43650437

     13    -0.274E-03     0.0652193383       20.4365043353    5069.38  <-- CONV
        O_D=      0.0000000 O_OD=      0.4747116 O_TOT=     20.4365043 <-- SPRD
 Delta: O_D=  0.2244040E-07 O_OD= -0.2739285E-03 O_TOT= -0.2739060E-03 <-- DLTA
 ------------------------------------------------------------------------------
 Cycle:     14
  WF centre and spread    1  (  2.088500,  2.088500,  2.088500 )     0.52445940
  WF centre and spread    2  (  2.088499,  2.088499,  2.088501 )     0.58663260
  WF centre and spread    3  (  2.088501,  2.088503,  2.088501 )     0.58665992
  WF centre and spread    4  (  2.088500,  2.088500,  2.088500 )     0.52445940
  WF centre and spread    5  (  2.088499,  2.088502,  2.088498 )     0.58668346
  WF centre and spread    6  ( -0.000000, -0.000001,  2.088500 )     0.52440173
  WF centre and spread    7  ( -0.000004,  0.000002,  2.088499 )     0.58661900
  WF centre and spread    8  ( -0.000001, -0.000001,  2.088499 )     0.58660813
  WF centre and spread    9  ( -0.000002, -0.000002,  2.088500 )     0.52439407
  WF centre and spread   10  (  0.000001, -0.000001,  2.088502 )     0.58676116
  WF centre and spread   11  (  0.000000,  2.088497, -0.000000 )     0.52438226
  WF centre and spread   12  (  0.000001,  2.088502, -0.000001 )     0.58673104
  WF centre and spread   13  ( -0.000001,  2.088503,  0.000000 )     0.58665883
  WF centre and spread   14  (  0.000000,  2.088501, -0.000000 )     0.52436418
  WF centre and spread   15  ( -0.000002,  2.088499,  0.000001 )     0.58665540
  WF centre and spread   16  (  2.088501, -0.000000, -0.000000 )     0.52439143
  WF centre and spread   17  (  2.088503,  0.000000,  0.000003 )     0.58663647
  WF centre and spread   18  (  2.088499, -0.000003, -0.000002 )     0.58675945
  WF centre and spread   19  (  2.088503, -0.000000, -0.000000 )     0.52441529
  WF centre and spread   20  (  2.088501,  0.000004,  0.000001 )     0.58662804
  WF centre and spread   21  (  0.000002,  0.000002, -0.000003 )     0.76663738
  WF centre and spread   22  (  0.000005, -0.000002, -0.000001 )     0.76664046
  WF centre and spread   23  (  0.000001, -0.000004, -0.000000 )     0.76662415
[...]
  WF centre and spread   23  (  0.000001, -0.000004, -0.000000 )     0.76605611
  WF centre and spread   24  ( -0.000000,  2.088500,  2.088500 )     0.76618177
  WF centre and spread   25  ( -0.000001,  2.088499,  2.088499 )     0.76620016
  WF centre and spread   26  (  0.000000,  2.088498,  2.088499 )     0.76619450
  WF centre and spread   27  (  2.088498,  0.000000,  2.088499 )     0.76621460
  WF centre and spread   28  (  2.088499,  0.000000,  2.088501 )     0.76622512
  WF centre and spread   29  (  2.088500,  0.000001,  2.088499 )     0.76622840
  WF centre and spread   30  (  2.088500,  2.088499,  0.000001 )     0.76619728
  WF centre and spread   31  (  2.088500,  2.088502, -0.000000 )     0.76619499
  WF centre and spread   32  (  2.088500,  2.088499,  0.000000 )     0.76619543
  Sum of centres and spreads ( 33.416001, 33.415998, 33.415997 )    20.43554427

     46    -0.741E-10     0.0000427085       20.4355441665    5075.54  <-- CONV
        O_D=      0.0000000 O_OD=      0.4737515 O_TOT=     20.4355442 <-- SPRD
 Delta: O_D= -0.3744368E-11 O_OD= -0.7034850E-10 O_TOT= -0.7409540E-10 <-- DLTA
 ------------------------------------------------------------------------------
 Cycle:     47
  WF centre and spread    1  (  2.088500,  2.088500,  2.088500 )     0.52517104
  WF centre and spread    2  (  2.088499,  2.088499,  2.088501 )     0.58667605
  WF centre and spread    3  (  2.088501,  2.088503,  2.088501 )     0.58670345
  WF centre and spread    4  (  2.088500,  2.088500,  2.088500 )     0.52517104
  WF centre and spread    5  (  2.088499,  2.088502,  2.088498 )     0.58672701
  WF centre and spread    6  ( -0.000000, -0.000001,  2.088500 )     0.52511308
  WF centre and spread    7  ( -0.000004,  0.000002,  2.088499 )     0.58666241
  WF centre and spread    8  ( -0.000001, -0.000001,  2.088499 )     0.58665148
  WF centre and spread    9  ( -0.000002, -0.000002,  2.088500 )     0.52510553
  WF centre and spread   10  (  0.000001, -0.000001,  2.088502 )     0.58680487
  WF centre and spread   11  (  0.000000,  2.088497, -0.000000 )     0.52509363
  WF centre and spread   12  (  0.000001,  2.088502, -0.000001 )     0.58677471
  WF centre and spread   13  ( -0.000001,  2.088503,  0.000000 )     0.58670225
  WF centre and spread   14  (  0.000000,  2.088501, -0.000000 )     0.52507540
  WF centre and spread   15  ( -0.000002,  2.088499,  0.000001 )     0.58669882
  WF centre and spread   16  (  2.088501, -0.000000, -0.000000 )     0.52510286
  WF centre and spread   17  (  2.088503,  0.000000,  0.000003 )     0.58667991
  WF centre and spread   18  (  2.088499, -0.000003, -0.000002 )     0.58680316
  WF centre and spread   19  (  2.088504, -0.000000, -0.000000 )     0.52512672
  WF centre and spread   20  (  2.088501,  0.000004,  0.000001 )     0.58667143
  WF centre and spread   21  (  0.000002,  0.000002, -0.000003 )     0.76606911
  WF centre and spread   22  (  0.000005, -0.000002, -0.000001 )     0.76607221
  WF centre and spread   23  (  0.000001, -0.000004, -0.000000 )     0.76605608
  WF centre and spread   24  ( -0.000000,  2.088500,  2.088500 )     0.76618175
  WF centre and spread   25  ( -0.000001,  2.088499,  2.088499 )     0.76620014
  WF centre and spread   26  (  0.000000,  2.088498,  2.088499 )     0.76619447
  WF centre and spread   27  (  2.088498,  0.000000,  2.088499 )     0.76621458
  WF centre and spread   28  (  2.088499,  0.000000,  2.088501 )     0.76622509
  WF centre and spread   29  (  2.088500,  0.000001,  2.088499 )     0.76622837
  WF centre and spread   30  (  2.088500,  2.088499,  0.000001 )     0.76619725
  WF centre and spread   31  (  2.088500,  2.088502, -0.000000 )     0.76619497
  WF centre and spread   32  (  2.088500,  2.088499,  0.000000 )     0.76619540
  Sum of centres and spreads ( 33.416001, 33.415998, 33.415997 )    20.43554427

     47    -0.293E-10     0.0000308490       20.4355441665    5075.73  <-- CONV
        O_D=      0.0000000 O_OD=      0.4737515 O_TOT=     20.4355442 <-- SPRD
 Delta: O_D=  0.6544683E-12 O_OD= -0.2997497E-10 O_TOT= -0.2932055E-10 <-- DLTA
 ------------------------------------------------------------------------------
 Cycle:     48
  WF centre and spread    1  (  2.088500,  2.088500,  2.088500 )     0.52517110
  WF centre and spread    2  (  2.088499,  2.088499,  2.088501 )     0.58667606
  WF centre and spread    3  (  2.088501,  2.088503,  2.088501 )     0.58670345
  WF centre and spread    4  (  2.088500,  2.088500,  2.088500 )     0.52517110
  WF centre and spread    5  (  2.088499,  2.088502,  2.088498 )     0.58672701
  WF centre and spread    6  ( -0.000000, -0.000001,  2.088500 )     0.52511313
  WF centre and spread    7  ( -0.000004,  0.000002,  2.088499 )     0.58666241
  WF centre and spread    8  ( -0.000001, -0.000001,  2.088499 )     0.58665148
  WF centre and spread    9  ( -0.000002, -0.000002,  2.088500 )     0.52510558
  WF centre and spread   10  (  0.000001, -0.000001,  2.088502 )     0.58680487
  WF centre and spread   11  (  0.000000,  2.088497, -0.000000 )     0.52509369
  WF centre and spread   12  (  0.000001,  2.088502, -0.000001 )     0.58677471
  WF centre and spread   13  ( -0.000001,  2.088503,  0.000000 )     0.58670225
  WF centre and spread   14  (  0.000000,  2.088501, -0.000000 )     0.52507546
  WF centre and spread   15  ( -0.000002,  2.088499,  0.000001 )     0.58669882
  WF centre and spread   16  (  2.088501, -0.000000, -0.000000 )     0.52510292
  WF centre and spread   17  (  2.088503,  0.000000,  0.000003 )     0.58667991
  WF centre and spread   18  (  2.088499, -0.000003, -0.000002 )     0.58680316
  WF centre and spread   19  (  2.088504, -0.000000, -0.000000 )     0.52512677
  WF centre and spread   20  (  2.088501,  0.000004,  0.000001 )     0.58667143
  WF centre and spread   21  (  0.000002,  0.000002, -0.000003 )     0.76606907
  WF centre and spread   22  (  0.000005, -0.000002, -0.000001 )     0.76607217
  WF centre and spread   23  (  0.000001, -0.000004, -0.000000 )     0.76605604
  WF centre and spread   24  ( -0.000000,  2.088500,  2.088500 )     0.76618171
  WF centre and spread   25  ( -0.000001,  2.088499,  2.088499 )     0.76620010
  WF centre and spread   26  (  0.000000,  2.088498,  2.088499 )     0.76619444
  WF centre and spread   27  (  2.088498,  0.000000,  2.088499 )     0.76621454
  WF centre and spread   28  (  2.088499,  0.000000,  2.088501 )     0.76622505
  WF centre and spread   29  (  2.088500,  0.000001,  2.088499 )     0.76622833
  WF centre and spread   30  (  2.088500,  2.088499,  0.000001 )     0.76619721
  WF centre and spread   31  (  2.088500,  2.088502, -0.000000 )     0.76619493
  WF centre and spread   32  (  2.088500,  2.088499,  0.000000 )     0.76619536
  Sum of centres and spreads ( 33.416001, 33.415998, 33.415997 )    20.43554428

     48    -0.130E-10     0.0000289439       20.4355441665    5075.92  <-- CONV
        O_D=      0.0000000 O_OD=      0.4737515 O_TOT=     20.4355442 <-- SPRD
 Delta: O_D= -0.3029803E-11 O_OD= -0.9936552E-11 O_TOT= -0.1296385E-10 <-- DLTA
 ------------------------------------------------------------------------------
 Cycle:     49
  WF centre and spread    1  (  2.088500,  2.088500,  2.088500 )     0.52517111
  WF centre and spread    2  (  2.088499,  2.088499,  2.088501 )     0.58667606
  WF centre and spread    3  (  2.088501,  2.088503,  2.088501 )     0.58670345
  WF centre and spread    4  (  2.088500,  2.088500,  2.088500 )     0.52517111
  WF centre and spread    5  (  2.088499,  2.088502,  2.088498 )     0.58672702
  WF centre and spread    6  ( -0.000000, -0.000001,  2.088500 )     0.52511315
  WF centre and spread    7  ( -0.000004,  0.000002,  2.088499 )     0.58666241
  WF centre and spread    8  ( -0.000001, -0.000001,  2.088499 )     0.58665148
  WF centre and spread    9  ( -0.000002, -0.000002,  2.088500 )     0.52510560
  WF centre and spread   10  (  0.000001, -0.000001,  2.088502 )     0.58680488
  WF centre and spread   11  (  0.000000,  2.088497, -0.000000 )     0.52509370
  WF centre and spread   12  (  0.000001,  2.088502, -0.000001 )     0.58677471
  WF centre and spread   13  ( -0.000001,  2.088503,  0.000000 )     0.58670226
  WF centre and spread   14  (  0.000000,  2.088501, -0.000000 )     0.52507547
  WF centre and spread   15  ( -0.000002,  2.088499,  0.000001 )     0.58669883
  WF centre and spread   16  (  2.088501, -0.000000, -0.000000 )     0.52510293
  WF centre and spread   17  (  2.088503,  0.000000,  0.000003 )     0.58667991
  WF centre and spread   18  (  2.088499, -0.000003, -0.000002 )     0.58680317
  WF centre and spread   19  (  2.088504, -0.000000, -0.000000 )     0.52512679
  WF centre and spread   20  (  2.088501,  0.000004,  0.000001 )     0.58667144
  WF centre and spread   21  (  0.000002,  0.000002, -0.000003 )     0.76606906
  WF centre and spread   22  (  0.000005, -0.000002, -0.000001 )     0.76607216
  WF centre and spread   23  (  0.000001, -0.000004, -0.000000 )     0.76605603
  WF centre and spread   24  ( -0.000000,  2.088500,  2.088500 )     0.76618170
  WF centre and spread   25  ( -0.000001,  2.088499,  2.088499 )     0.76620008
  WF centre and spread   26  (  0.000000,  2.088498,  2.088499 )     0.76619442
  WF centre and spread   27  (  2.088498,  0.000000,  2.088499 )     0.76621452
  WF centre and spread   28  (  2.088499,  0.000000,  2.088501 )     0.76622504
  WF centre and spread   29  (  2.088500,  0.000001,  2.088499 )     0.76622832
  WF centre and spread   30  (  2.088500,  2.088499,  0.000001 )     0.76619720
  WF centre and spread   31  (  2.088500,  2.088502, -0.000000 )     0.76619492
  WF centre and spread   32  (  2.088500,  2.088499,  0.000000 )     0.76619535
  Sum of centres and spreads ( 33.416001, 33.415998, 33.415997 )    20.43554428

     49    -0.209E-10     0.0000256336       20.4355441665    5076.11  <-- CONV
        O_D=      0.0000000 O_OD=      0.4737515 O_TOT=     20.4355442 <-- SPRD
 Delta: O_D=  0.4545505E-11 O_OD= -0.2547407E-10 O_TOT= -0.2092904E-10 <-- DLTA
 ------------------------------------------------------------------------------
 Cycle:     50
  WF centre and spread    1  (  2.088500,  2.088500,  2.088500 )     0.52517115
  WF centre and spread    2  (  2.088499,  2.088499,  2.088501 )     0.58667607
  WF centre and spread    3  (  2.088501,  2.088503,  2.088501 )     0.58670346
  WF centre and spread    4  (  2.088500,  2.088500,  2.088500 )     0.52517115
  WF centre and spread    5  (  2.088499,  2.088502,  2.088498 )     0.58672702
  WF centre and spread    6  ( -0.000000, -0.000001,  2.088500 )     0.52511318
  WF centre and spread    7  ( -0.000004,  0.000002,  2.088499 )     0.58666242
  WF centre and spread    8  ( -0.000001, -0.000001,  2.088499 )     0.58665149
  WF centre and spread    9  ( -0.000002, -0.000002,  2.088500 )     0.52510563
  WF centre and spread   10  (  0.000001, -0.000001,  2.088502 )     0.58680488
  WF centre and spread   11  (  0.000000,  2.088497, -0.000000 )     0.52509373
  WF centre and spread   12  (  0.000001,  2.088502, -0.000001 )     0.58677472
  WF centre and spread   13  ( -0.000001,  2.088503,  0.000000 )     0.58670226
  WF centre and spread   14  (  0.000000,  2.088501, -0.000000 )     0.52507550
  WF centre and spread   15  ( -0.000002,  2.088499,  0.000001 )     0.58669883
  WF centre and spread   16  (  2.088501, -0.000000, -0.000000 )     0.52510296
  WF centre and spread   17  (  2.088503,  0.000000,  0.000003 )     0.58667992
  WF centre and spread   18  (  2.088499, -0.000003, -0.000002 )     0.58680317
  WF centre and spread   19  (  2.088504, -0.000000, -0.000000 )     0.52512682
  WF centre and spread   20  (  2.088501,  0.000004,  0.000001 )     0.58667144
  WF centre and spread   21  (  0.000002,  0.000002, -0.000003 )     0.76606903
  WF centre and spread   22  (  0.000005, -0.000002, -0.000001 )     0.76607213
  WF centre and spread   23  (  0.000001, -0.000004, -0.000000 )     0.76605600
  WF centre and spread   24  ( -0.000000,  2.088500,  2.088500 )     0.76618167
  WF centre and spread   25  ( -0.000001,  2.088499,  2.088499 )     0.76620006
  WF centre and spread   26  (  0.000000,  2.088498,  2.088499 )     0.76619440
  WF centre and spread   27  (  2.088498,  0.000000,  2.088499 )     0.76621450
  WF centre and spread   28  (  2.088499,  0.000000,  2.088501 )     0.76622501
  WF centre and spread   29  (  2.088500,  0.000001,  2.088499 )     0.76622829
  WF centre and spread   30  (  2.088500,  2.088499,  0.000001 )     0.76619717
  WF centre and spread   31  (  2.088500,  2.088502, -0.000000 )     0.76619489
  WF centre and spread   32  (  2.088500,  2.088499,  0.000000 )     0.76619532
  Sum of centres and spreads ( 33.416001, 33.415998, 33.415997 )    20.43554428

     50    -0.977E-11     0.0000311410       20.4355441665    5076.29  <-- CONV
        O_D=      0.0000000 O_OD=      0.4737515 O_TOT=     20.4355442 <-- SPRD
 Delta: O_D= -0.5198161E-11 O_OD= -0.4572953E-11 O_TOT= -0.9769963E-11 <-- DLTA
 ------------------------------------------------------------------------------
 Final State
  WF centre and spread    1  (  2.088500,  2.088500,  2.088500 )     0.52517115
  WF centre and spread    2  (  2.088499,  2.088499,  2.088501 )     0.58667607
  WF centre and spread    3  (  2.088501,  2.088503,  2.088501 )     0.58670346
  WF centre and spread    4  (  2.088500,  2.088500,  2.088500 )     0.52517115
  WF centre and spread    5  (  2.088499,  2.088502,  2.088498 )     0.58672702
  WF centre and spread    6  ( -0.000000, -0.000001,  2.088500 )     0.52511318
  WF centre and spread    7  ( -0.000004,  0.000002,  2.088499 )     0.58666242
  WF centre and spread    8  ( -0.000001, -0.000001,  2.088499 )     0.58665149
  WF centre and spread    9  ( -0.000002, -0.000002,  2.088500 )     0.52510563
  WF centre and spread   10  (  0.000001, -0.000001,  2.088502 )     0.58680488
  WF centre and spread   11  (  0.000000,  2.088497, -0.000000 )     0.52509373
  WF centre and spread   12  (  0.000001,  2.088502, -0.000001 )     0.58677472
  WF centre and spread   13  ( -0.000001,  2.088503,  0.000000 )     0.58670226
  WF centre and spread   14  (  0.000000,  2.088501, -0.000000 )     0.52507550
  WF centre and spread   15  ( -0.000002,  2.088499,  0.000001 )     0.58669883
  WF centre and spread   16  (  2.088501, -0.000000, -0.000000 )     0.52510296
  WF centre and spread   17  (  2.088503,  0.000000,  0.000003 )     0.58667992
  WF centre and spread   18  (  2.088499, -0.000003, -0.000002 )     0.58680317
  WF centre and spread   19  (  2.088504, -0.000000, -0.000000 )     0.52512682
  WF centre and spread   20  (  2.088501,  0.000004,  0.000001 )     0.58667144
  WF centre and spread   21  (  0.000002,  0.000002, -0.000003 )     0.76606903
  WF centre and spread   22  (  0.000005, -0.000002, -0.000001 )     0.76607213
  WF centre and spread   23  (  0.000001, -0.000004, -0.000000 )     0.76605600
  WF centre and spread   24  ( -0.000000,  2.088500,  2.088500 )     0.76618167
  WF centre and spread   25  ( -0.000001,  2.088499,  2.088499 )     0.76620006
  WF centre and spread   26  (  0.000000,  2.088498,  2.088499 )     0.76619440
  WF centre and spread   27  (  2.088498,  0.000000,  2.088499 )     0.76621450
  WF centre and spread   28  (  2.088499,  0.000000,  2.088501 )     0.76622501
  WF centre and spread   29  (  2.088500,  0.000001,  2.088499 )     0.76622829
  WF centre and spread   30  (  2.088500,  2.088499,  0.000001 )     0.76619717
  WF centre and spread   31  (  2.088500,  2.088502, -0.000000 )     0.76619489
  WF centre and spread   32  (  2.088500,  2.088499,  0.000000 )     0.76619532
  Sum of centres and spreads ( 33.416001, 33.415998, 33.415997 )    20.43554428

         Spreads (Ang^2)       Omega I      =    19.961792661
        ================       Omega D      =     0.000000009
                               Omega OD     =     0.473751496
    Final Spread (Ang^2)       Omega Total  =    20.435544166
 ------------------------------------------------------------------------------
 Time for wannierise            9.359 (sec)

 Writing checkpoint file NiO.chk... done

 *---------------------------------------------------------------------------*
 |                               PLOTTING                                    |
 *---------------------------------------------------------------------------*


 Calculating interpolated band-structure

 Time to calculate interpolated band structure      16.937 (sec)

      Wannier Function Num:    1       Maximum Im/Re Ratio =    0.000056
      Wannier Function Num:    2       Maximum Im/Re Ratio =    0.019018
      Wannier Function Num:    3       Maximum Im/Re Ratio =    0.015899
      Wannier Function Num:    4       Maximum Im/Re Ratio =    0.000063
      Wannier Function Num:    5       Maximum Im/Re Ratio =    0.025052
      Wannier Function Num:    6       Maximum Im/Re Ratio =    0.006221
      Wannier Function Num:    7       Maximum Im/Re Ratio =    0.016572
      Wannier Function Num:    8       Maximum Im/Re Ratio =    0.019215
      Wannier Function Num:    9       Maximum Im/Re Ratio =    0.004047
      Wannier Function Num:   10       Maximum Im/Re Ratio =    0.012389
      Wannier Function Num:   11       Maximum Im/Re Ratio =    0.006297
      Wannier Function Num:   12       Maximum Im/Re Ratio =    0.012598
      Wannier Function Num:   13       Maximum Im/Re Ratio =    0.027417
      Wannier Function Num:   14       Maximum Im/Re Ratio =    0.006385
      Wannier Function Num:   15       Maximum Im/Re Ratio =    0.015429
      Wannier Function Num:   16       Maximum Im/Re Ratio =    0.007177
      Wannier Function Num:   17       Maximum Im/Re Ratio =    0.023113
      Wannier Function Num:   18       Maximum Im/Re Ratio =    0.012998
      Wannier Function Num:   19       Maximum Im/Re Ratio =    0.006600
      Wannier Function Num:   20       Maximum Im/Re Ratio =    0.020136
      Wannier Function Num:   21       Maximum Im/Re Ratio =    0.011714
      Wannier Function Num:   22       Maximum Im/Re Ratio =    0.011687
      Wannier Function Num:   23       Maximum Im/Re Ratio =    0.011611
      Wannier Function Num:   24       Maximum Im/Re Ratio =    0.004458
      Wannier Function Num:   25       Maximum Im/Re Ratio =    0.007044
      Wannier Function Num:   26       Maximum Im/Re Ratio =    0.006682
      Wannier Function Num:   27       Maximum Im/Re Ratio =    0.005216
      Wannier Function Num:   28       Maximum Im/Re Ratio =    0.006434
      Wannier Function Num:   29       Maximum Im/Re Ratio =    0.007405
      Wannier Function Num:   30       Maximum Im/Re Ratio =    0.007054
      Wannier Function Num:   31       Maximum Im/Re Ratio =    0.004314
      Wannier Function Num:   32       Maximum Im/Re Ratio =    0.004257
  
 Time for plotting           1280.054 (sec)
 Total Execution Time        6385.488 (sec)

 *===========================================================================*
 |                             TIMING INFORMATION                            |
 *===========================================================================*
 |    Tag                                                Ncalls      Time (s)|
 |---------------------------------------------------------------------------|
 |kmesh: get                                        :         1         0.210|
 |overlap: allocate                                 :         1         0.001|
 |overlap: read                                     :         1         0.981|
 |dis: main                                         :         1      5093.214|
 |wann: main                                        :         1         9.359|
 |plot: main                                        :         1      1280.054|
 *---------------------------------------------------------------------------*

 All done: wannier90 exiting
