
     Program PWSCF v.6.4 starts on 22May2019 at 11:37:54 

     This program is part of the open-source Quantum ESPRESSO suite
     for quantum simulation of materials; please cite
         "P. Giannozzi et al., J. Phys.:Condens. Matter 21 395502 (2009);
         "P. Giannozzi et al., J. Phys.:Condens. Matter 29 465901 (2017);
          URL http://www.quantum-espresso.org", 
     in publications or presentations arising from this work. More details at
     http://www.quantum-espresso.org/quote

     Serial version
     Waiting for input...
     Reading input from standard input

     Current dimensions of program PWSCF are:
     Max number of different atomic species (ntypx) = 10
     Max number of k-points (npk) =  40000
     Max angular momentum in pseudopotentials (lmaxx) =  3

     Atomic positions and unit cell read from directory:
     ./nio.save/

     Found symmetry operation: I + (  0.0000 -0.5000 -0.5000)
     This is a supercell, fractional translations are disabled

     G-vector sticks info
     --------------------
     sticks:   dense  smooth     PW     G-vecs:    dense   smooth      PW
     Sum        1201    1201    377                31031    31031    5575



     bravais-lattice index     =            1
     lattice parameter (alat)  =       7.8934  a.u.
     unit-cell volume          =     491.8017 (a.u.)^3
     number of atoms/cell      =            8
     number of atomic types    =            2
     number of electrons       =        96.00
     number of Kohn-Sham states=           58
     kinetic-energy cutoff     =      60.0000  Ry
     charge density cutoff     =     240.0000  Ry
     Exchange-correlation      = PBE ( 1  4  3  4 0 0)

     celldm(1)=   7.893386  celldm(2)=   0.000000  celldm(3)=   0.000000
     celldm(4)=   0.000000  celldm(5)=   0.000000  celldm(6)=   0.000000

     crystal axes: (cart. coord. in units of alat)
               a(1) = (   1.000000   0.000000   0.000000 )  
               a(2) = (   0.000000   1.000000   0.000000 )  
               a(3) = (   0.000000   0.000000   1.000000 )  

     reciprocal axes: (cart. coord. in units 2 pi/alat)
               b(1) = (  1.000000  0.000000  0.000000 )  
               b(2) = (  0.000000  1.000000  0.000000 )  
               b(3) = (  0.000000  0.000000  1.000000 )  


     PseudoPot. # 1 for O  read from file:
     /home/dirac/tmcs/newc5616/wannier90-3.0.0/pseudo/O_ONCV_PBE-1.0.upf
     MD5 check sum: 80a85145cbbb6f60b39549a50e3ff56c
     Pseudo is Norm-conserving, Zval =  6.0
     Generated using ONCVPSP code by D. R. Hamann
     Using radial grid of  602 points,  4 beta functions with: 
                l(1) =   0
                l(2) =   0
                l(3) =   1
                l(4) =   1

     PseudoPot. # 2 for Ni read from file:
     /home/dirac/tmcs/newc5616/wannier90-3.0.0/pseudo/Ni_ONCV_PBE-1.0.upf
     MD5 check sum: b4845633f316de50760b86b4f4abc5a4
     Pseudo is Norm-conserving, Zval = 18.0
     Generated using ONCVPSP code by D. R. Hamann
     Using radial grid of  602 points,  6 beta functions with: 
                l(1) =   0
                l(2) =   0
                l(3) =   1
                l(4) =   1
                l(5) =   2
                l(6) =   2

     atomic species   valence    mass     pseudopotential
        O              6.00     8.00000     O ( 1.00)
        Ni            18.00    28.00000     Ni( 1.00)

     48 Sym. Ops., with inversion, found



   Cartesian axes

     site n.     atom                  positions (alat units)
         1           O   tau(   1) = (   0.0000000   0.0000000   0.0000000  )
         2           O   tau(   2) = (   0.0000000   0.5000000   0.5000000  )
         3           O   tau(   3) = (   0.5000000   0.0000000   0.5000000  )
         4           O   tau(   4) = (   0.5000000   0.5000000   0.0000000  )
         5           Ni  tau(   5) = (   0.5000000   0.5000000   0.5000000  )
         6           Ni  tau(   6) = (   0.0000000   0.0000000   0.5000000  )
         7           Ni  tau(   7) = (   0.0000000   0.5000000   0.0000000  )
         8           Ni  tau(   8) = (   0.5000000   0.0000000   0.0000000  )

     number of k points=    64  gaussian smearing, width (Ry)=  0.0100
                       cart. coord. in units 2pi/alat
        k(    1) = (   0.0000000   0.0000000   0.0000000), wk =   0.0312500
        k(    2) = (   0.0000000   0.0000000   0.2500000), wk =   0.0312500
        k(    3) = (   0.0000000   0.0000000   0.5000000), wk =   0.0312500
        k(    4) = (   0.0000000   0.0000000   0.7500000), wk =   0.0312500
        k(    5) = (   0.0000000   0.2500000   0.0000000), wk =   0.0312500
        k(    6) = (   0.0000000   0.2500000   0.2500000), wk =   0.0312500
        k(    7) = (   0.0000000   0.2500000   0.5000000), wk =   0.0312500
        k(    8) = (   0.0000000   0.2500000   0.7500000), wk =   0.0312500
        k(    9) = (   0.0000000   0.5000000   0.0000000), wk =   0.0312500
        k(   10) = (   0.0000000   0.5000000   0.2500000), wk =   0.0312500
        k(   11) = (   0.0000000   0.5000000   0.5000000), wk =   0.0312500
        k(   12) = (   0.0000000   0.5000000   0.7500000), wk =   0.0312500
        k(   13) = (   0.0000000   0.7500000   0.0000000), wk =   0.0312500
        k(   14) = (   0.0000000   0.7500000   0.2500000), wk =   0.0312500
        k(   15) = (   0.0000000   0.7500000   0.5000000), wk =   0.0312500
        k(   16) = (   0.0000000   0.7500000   0.7500000), wk =   0.0312500
        k(   17) = (   0.2500000   0.0000000   0.0000000), wk =   0.0312500
        k(   18) = (   0.2500000   0.0000000   0.2500000), wk =   0.0312500
        k(   19) = (   0.2500000   0.0000000   0.5000000), wk =   0.0312500
        k(   20) = (   0.2500000   0.0000000   0.7500000), wk =   0.0312500
        k(   21) = (   0.2500000   0.2500000   0.0000000), wk =   0.0312500
        k(   22) = (   0.2500000   0.2500000   0.2500000), wk =   0.0312500
        k(   23) = (   0.2500000   0.2500000   0.5000000), wk =   0.0312500
        k(   24) = (   0.2500000   0.2500000   0.7500000), wk =   0.0312500
        k(   25) = (   0.2500000   0.5000000   0.0000000), wk =   0.0312500
        k(   26) = (   0.2500000   0.5000000   0.2500000), wk =   0.0312500
        k(   27) = (   0.2500000   0.5000000   0.5000000), wk =   0.0312500
        k(   28) = (   0.2500000   0.5000000   0.7500000), wk =   0.0312500
        k(   29) = (   0.2500000   0.7500000   0.0000000), wk =   0.0312500
        k(   30) = (   0.2500000   0.7500000   0.2500000), wk =   0.0312500
        k(   31) = (   0.2500000   0.7500000   0.5000000), wk =   0.0312500
        k(   32) = (   0.2500000   0.7500000   0.7500000), wk =   0.0312500
        k(   33) = (   0.5000000   0.0000000   0.0000000), wk =   0.0312500
        k(   34) = (   0.5000000   0.0000000   0.2500000), wk =   0.0312500
        k(   35) = (   0.5000000   0.0000000   0.5000000), wk =   0.0312500
        k(   36) = (   0.5000000   0.0000000   0.7500000), wk =   0.0312500
        k(   37) = (   0.5000000   0.2500000   0.0000000), wk =   0.0312500
        k(   38) = (   0.5000000   0.2500000   0.2500000), wk =   0.0312500
        k(   39) = (   0.5000000   0.2500000   0.5000000), wk =   0.0312500
        k(   40) = (   0.5000000   0.2500000   0.7500000), wk =   0.0312500
        k(   41) = (   0.5000000   0.5000000   0.0000000), wk =   0.0312500
        k(   42) = (   0.5000000   0.5000000   0.2500000), wk =   0.0312500
        k(   43) = (   0.5000000   0.5000000   0.5000000), wk =   0.0312500
        k(   44) = (   0.5000000   0.5000000   0.7500000), wk =   0.0312500
        k(   45) = (   0.5000000   0.7500000   0.0000000), wk =   0.0312500
        k(   46) = (   0.5000000   0.7500000   0.2500000), wk =   0.0312500
        k(   47) = (   0.5000000   0.7500000   0.5000000), wk =   0.0312500
        k(   48) = (   0.5000000   0.7500000   0.7500000), wk =   0.0312500
        k(   49) = (   0.7500000   0.0000000   0.0000000), wk =   0.0312500
        k(   50) = (   0.7500000   0.0000000   0.2500000), wk =   0.0312500
        k(   51) = (   0.7500000   0.0000000   0.5000000), wk =   0.0312500
        k(   52) = (   0.7500000   0.0000000   0.7500000), wk =   0.0312500
        k(   53) = (   0.7500000   0.2500000   0.0000000), wk =   0.0312500
        k(   54) = (   0.7500000   0.2500000   0.2500000), wk =   0.0312500
        k(   55) = (   0.7500000   0.2500000   0.5000000), wk =   0.0312500
        k(   56) = (   0.7500000   0.2500000   0.7500000), wk =   0.0312500
        k(   57) = (   0.7500000   0.5000000   0.0000000), wk =   0.0312500
        k(   58) = (   0.7500000   0.5000000   0.2500000), wk =   0.0312500
        k(   59) = (   0.7500000   0.5000000   0.5000000), wk =   0.0312500
        k(   60) = (   0.7500000   0.5000000   0.7500000), wk =   0.0312500
        k(   61) = (   0.7500000   0.7500000   0.0000000), wk =   0.0312500
        k(   62) = (   0.7500000   0.7500000   0.2500000), wk =   0.0312500
        k(   63) = (   0.7500000   0.7500000   0.5000000), wk =   0.0312500
        k(   64) = (   0.7500000   0.7500000   0.7500000), wk =   0.0312500

     Dense  grid:    31031 G-vectors     FFT dimensions: (  40,  40,  40)

     Estimated max dynamical RAM per process >      52.26 MB

     The potential is recalculated from file :
     ./nio.save/charge-density

     Starting wfcs are random

     Band Structure Calculation
     Davidson diagonalization with overlap

     ethr =  1.04E-13,  avg # of iterations = 30.7

     total cpu time spent up to now is      237.5 secs

     End of band structure calculation

          k = 0.0000 0.0000 0.0000 (  3887 PWs)   bands (ev):

   -87.6700 -87.6663 -87.6663 -87.6663 -48.0950 -48.0950 -48.0950 -48.0779
   -48.0779 -48.0779 -48.0779 -48.0779 -48.0779 -48.0657 -48.0657 -48.0657
    -5.0173  -3.6223  -3.6223  -3.6223   8.5071   8.5071   8.5071  11.0472
    11.0472  11.0472  11.0472  11.0472  11.0472  12.3195  12.3195  12.3195
    12.6311  12.6311  12.6311  13.5856  13.5856  13.5856  13.7855  13.7855
    14.1675  14.1675  14.1675  14.6578  14.6578  14.6578  14.6579  14.6579
    14.6579  14.6809  14.6809  14.6809  17.1419  21.9760  21.9760  21.9760
    26.0652  26.0652

          k = 0.0000 0.0000 0.2500 (  3867 PWs)   bands (ev):

   -87.6695 -87.6668 -87.6663 -87.6663 -48.0925 -48.0925 -48.0908 -48.0804
   -48.0804 -48.0780 -48.0780 -48.0761 -48.0761 -48.0701 -48.0675 -48.0675
    -4.7958  -3.7986  -3.5690  -3.5690   8.4739   8.7085   8.7085  10.2750
    10.2750  10.2801  10.2801  10.6514  11.1014  11.1014  11.8632  11.8632
    12.7665  13.4093  13.4093  13.4414  13.8407  14.0734  14.0734  14.1112
    14.5033  14.5033  14.6055  14.6055  14.6232  14.6584  14.6584  14.6978
    14.6978  14.9314  15.0082  15.0082  18.5304  22.1260  22.8896  22.8896
    26.0496  26.0496

          k = 0.0000 0.0000 0.5000 (  3868 PWs)   bands (ev):

   -87.6682 -87.6681 -87.6663 -87.6663 -48.0864 -48.0864 -48.0864 -48.0864
   -48.0806 -48.0805 -48.0781 -48.0780 -48.0718 -48.0718 -48.0718 -48.0718
    -4.2777  -4.2777  -3.5134  -3.5133   9.0280   9.0280   9.3161   9.3161
     9.3161   9.3161   9.7115   9.7115  11.3369  11.3369  11.3369  11.3369
    13.0994  13.0994  13.9749  13.9749  14.2637  14.2637  14.2637  14.2637
    14.5565  14.5565  14.5882  14.5882  14.5882  14.5882  14.6592  14.6592
    15.0207  15.0207  15.3977  15.3978  20.9735  20.9735  24.2508  24.2508
    26.2590  26.2590

          k = 0.0000 0.0000 0.7500 (  3867 PWs)   bands (ev):

   -87.6695 -87.6668 -87.6663 -87.6663 -48.0925 -48.0925 -48.0908 -48.0804
   -48.0804 -48.0780 -48.0780 -48.0761 -48.0761 -48.0701 -48.0675 -48.0675
    -4.7958  -3.7986  -3.5690  -3.5690   8.4739   8.7085   8.7085  10.2750
    10.2750  10.2801  10.2801  10.6514  11.1014  11.1014  11.8632  11.8632
    12.7665  13.4093  13.4093  13.4414  13.8407  14.0734  14.0734  14.1112
    14.5033  14.5033  14.6055  14.6055  14.6232  14.6584  14.6584  14.6978
    14.6978  14.9314  15.0082  15.0082  18.5304  22.1260  22.8896  22.8896
    26.0496  26.0496

          k = 0.0000 0.2500 0.0000 (  3867 PWs)   bands (ev):

   -87.6695 -87.6668 -87.6663 -87.6663 -48.0925 -48.0925 -48.0908 -48.0804
   -48.0804 -48.0780 -48.0780 -48.0761 -48.0761 -48.0701 -48.0675 -48.0675
    -4.7958  -3.7986  -3.5690  -3.5690   8.4739   8.7085   8.7085  10.2750
    10.2750  10.2801  10.2801  10.6514  11.1014  11.1014  11.8632  11.8632
    12.7665  13.4093  13.4093  13.4414  13.8407  14.0734  14.0734  14.1112
    14.5033  14.5033  14.6055  14.6055  14.6232  14.6584  14.6584  14.6978
    14.6978  14.9314  15.0082  15.0082  18.5304  22.1260  22.8896  22.8896
    26.0496  26.0496

          k = 0.0000 0.2500 0.2500 (  3874 PWs)   bands (ev):

   -87.6690 -87.6668 -87.6667 -87.6664 -48.0905 -48.0905 -48.0901 -48.0844
   -48.0785 -48.0785 -48.0758 -48.0753 -48.0753 -48.0752 -48.0693 -48.0666
    -4.5911  -3.7135  -3.7135  -3.5472   8.4907   8.4907   8.8974   9.2380
    10.0223  10.3852  10.3852  10.3958  10.3958  10.4085  10.9726  11.3847
    13.4740  13.4740  13.6806  13.7667  13.9969  14.1402  14.3907  14.3959
    14.3959  14.5269  14.6945  14.6945  14.7062  14.7543  14.7543  14.8655
    15.3866  15.4034  15.4034  15.4833  19.3246  22.8103  22.8103  23.5755
    25.9550  26.0474

          k = 0.0000 0.2500 0.5000 (  3846 PWs)   bands (ev):

   -87.6679 -87.6679 -87.6666 -87.6665 -48.0885 -48.0885 -48.0843 -48.0843
   -48.0843 -48.0843 -48.0742 -48.0742 -48.0739 -48.0739 -48.0699 -48.0699
    -4.1218  -4.1218  -3.5747  -3.5747   8.5759   8.5759   8.7842   8.7842
     9.4739   9.4739  10.0468  10.0468  10.5767  10.5767  10.7557  10.7558
    13.6562  13.6562  14.2303  14.2303  14.2408  14.2408  14.2464  14.2464
    14.5759  14.5759  14.6996  14.6996  14.7045  14.7045  14.8356  14.8356
    15.8663  15.8663  15.9084  15.9084  21.3491  21.3491  24.3211  24.3211
    25.2500  25.2500

          k = 0.0000 0.2500 0.7500 (  3874 PWs)   bands (ev):

   -87.6690 -87.6668 -87.6667 -87.6664 -48.0905 -48.0905 -48.0901 -48.0844
   -48.0785 -48.0785 -48.0758 -48.0753 -48.0753 -48.0752 -48.0693 -48.0666
    -4.5911  -3.7135  -3.7135  -3.5472   8.4907   8.4907   8.8974   9.2380
    10.0223  10.3852  10.3852  10.3958  10.3958  10.4085  10.9726  11.3847
    13.4740  13.4740  13.6806  13.7667  13.9969  14.1402  14.3907  14.3959
    14.3959  14.5269  14.6945  14.6945  14.7062  14.7543  14.7543  14.8655
    15.3866  15.4034  15.4034  15.4833  19.3246  22.8103  22.8103  23.5755
    25.9550  26.0474

          k = 0.0000 0.5000 0.0000 (  3868 PWs)   bands (ev):

   -87.6682 -87.6681 -87.6663 -87.6663 -48.0864 -48.0864 -48.0864 -48.0864
   -48.0806 -48.0805 -48.0781 -48.0780 -48.0718 -48.0718 -48.0718 -48.0718
    -4.2777  -4.2777  -3.5134  -3.5133   9.0280   9.0280   9.3161   9.3161
     9.3161   9.3161   9.7115   9.7115  11.3369  11.3369  11.3369  11.3369
    13.0994  13.0994  13.9749  13.9749  14.2637  14.2637  14.2637  14.2637
    14.5565  14.5565  14.5882  14.5882  14.5882  14.5882  14.6592  14.6592
    15.0207  15.0207  15.3977  15.3978  20.9735  20.9735  24.2508  24.2508
    26.2590  26.2590

          k = 0.0000 0.5000 0.2500 (  3846 PWs)   bands (ev):

   -87.6679 -87.6679 -87.6666 -87.6665 -48.0885 -48.0885 -48.0843 -48.0843
   -48.0843 -48.0843 -48.0742 -48.0742 -48.0739 -48.0739 -48.0699 -48.0699
    -4.1218  -4.1218  -3.5747  -3.5747   8.5759   8.5759   8.7842   8.7842
     9.4739   9.4739  10.0468  10.0468  10.5767  10.5767  10.7557  10.7558
    13.6562  13.6562  14.2303  14.2303  14.2408  14.2408  14.2464  14.2464
    14.5759  14.5759  14.6996  14.6996  14.7045  14.7045  14.8356  14.8356
    15.8663  15.8663  15.9084  15.9084  21.3491  21.3491  24.3211  24.3211
    25.2500  25.2500

          k = 0.0000 0.5000 0.5000 (  3900 PWs)   bands (ev):

   -87.6672 -87.6672 -87.6672 -87.6672 -48.0885 -48.0885 -48.0885 -48.0885
   -48.0791 -48.0791 -48.0791 -48.0791 -48.0701 -48.0701 -48.0701 -48.0701
    -3.8025  -3.8025  -3.8025  -3.8025   8.3108   8.3108   8.3108   8.3108
     9.9661   9.9661   9.9661   9.9661  10.1139  10.1139  10.1139  10.1139
    14.1715  14.1715  14.1715  14.1715  14.3396  14.3396  14.3396  14.3396
    14.6350  14.6350  14.6350  14.6350  14.8560  14.8560  14.8560  14.8560
    16.5351  16.5351  16.5351  16.5351  22.5772  22.5772  22.5772  22.5772
    26.6807  26.6807

          k = 0.0000 0.5000 0.7500 (  3846 PWs)   bands (ev):

   -87.6679 -87.6679 -87.6666 -87.6665 -48.0885 -48.0885 -48.0843 -48.0843
   -48.0843 -48.0843 -48.0742 -48.0742 -48.0739 -48.0739 -48.0699 -48.0699
    -4.1218  -4.1218  -3.5747  -3.5747   8.5759   8.5759   8.7842   8.7842
     9.4739   9.4739  10.0468  10.0468  10.5767  10.5767  10.7557  10.7558
    13.6562  13.6562  14.2303  14.2303  14.2408  14.2408  14.2464  14.2464
    14.5759  14.5759  14.6996  14.6996  14.7045  14.7045  14.8356  14.8356
    15.8663  15.8663  15.9084  15.9084  21.3491  21.3491  24.3211  24.3211
    25.2500  25.2500

          k = 0.0000 0.7500 0.0000 (  3867 PWs)   bands (ev):

   -87.6695 -87.6668 -87.6663 -87.6663 -48.0925 -48.0925 -48.0908 -48.0804
   -48.0804 -48.0780 -48.0780 -48.0761 -48.0761 -48.0701 -48.0675 -48.0675
    -4.7958  -3.7986  -3.5690  -3.5690   8.4739   8.7085   8.7085  10.2750
    10.2750  10.2801  10.2801  10.6514  11.1014  11.1014  11.8632  11.8632
    12.7665  13.4093  13.4093  13.4414  13.8407  14.0734  14.0734  14.1112
    14.5033  14.5033  14.6055  14.6055  14.6232  14.6584  14.6584  14.6978
    14.6978  14.9314  15.0082  15.0082  18.5304  22.1260  22.8896  22.8896
    26.0496  26.0496

          k = 0.0000 0.7500 0.2500 (  3874 PWs)   bands (ev):

   -87.6690 -87.6668 -87.6667 -87.6664 -48.0905 -48.0905 -48.0901 -48.0844
   -48.0785 -48.0785 -48.0758 -48.0753 -48.0753 -48.0752 -48.0693 -48.0666
    -4.5911  -3.7135  -3.7135  -3.5472   8.4907   8.4907   8.8974   9.2380
    10.0223  10.3852  10.3852  10.3958  10.3958  10.4085  10.9726  11.3847
    13.4740  13.4740  13.6806  13.7667  13.9969  14.1402  14.3907  14.3959
    14.3959  14.5269  14.6945  14.6945  14.7062  14.7543  14.7543  14.8655
    15.3866  15.4034  15.4034  15.4833  19.3246  22.8103  22.8103  23.5755
    25.9550  26.0474

          k = 0.0000 0.7500 0.5000 (  3846 PWs)   bands (ev):

   -87.6679 -87.6679 -87.6666 -87.6665 -48.0885 -48.0885 -48.0843 -48.0843
   -48.0843 -48.0843 -48.0742 -48.0742 -48.0739 -48.0739 -48.0699 -48.0699
    -4.1218  -4.1218  -3.5747  -3.5747   8.5759   8.5759   8.7842   8.7842
     9.4739   9.4739  10.0468  10.0468  10.5767  10.5767  10.7557  10.7558
    13.6562  13.6562  14.2303  14.2303  14.2408  14.2408  14.2464  14.2464
    14.5759  14.5759  14.6996  14.6996  14.7045  14.7045  14.8356  14.8356
    15.8663  15.8663  15.9084  15.9084  21.3491  21.3491  24.3211  24.3211
    25.2500  25.2500

          k = 0.0000 0.7500 0.7500 (  3874 PWs)   bands (ev):

   -87.6690 -87.6668 -87.6667 -87.6664 -48.0905 -48.0905 -48.0901 -48.0844
   -48.0785 -48.0785 -48.0758 -48.0753 -48.0753 -48.0752 -48.0693 -48.0666
    -4.5911  -3.7135  -3.7135  -3.5472   8.4907   8.4907   8.8974   9.2380
    10.0223  10.3852  10.3852  10.3958  10.3958  10.4085  10.9726  11.3847
    13.4740  13.4740  13.6806  13.7667  13.9969  14.1402  14.3907  14.3959
    14.3959  14.5269  14.6945  14.6945  14.7062  14.7543  14.7543  14.8655
    15.3866  15.4034  15.4034  15.4833  19.3246  22.8103  22.8103  23.5755
    25.9550  26.0474

          k = 0.2500 0.0000 0.0000 (  3867 PWs)   bands (ev):

   -87.6695 -87.6668 -87.6663 -87.6663 -48.0925 -48.0925 -48.0908 -48.0804
   -48.0804 -48.0780 -48.0780 -48.0761 -48.0761 -48.0701 -48.0675 -48.0675
    -4.7958  -3.7986  -3.5690  -3.5690   8.4739   8.7085   8.7085  10.2750
    10.2750  10.2801  10.2801  10.6514  11.1014  11.1014  11.8632  11.8632
    12.7665  13.4093  13.4093  13.4414  13.8407  14.0734  14.0734  14.1112
    14.5033  14.5033  14.6055  14.6055  14.6232  14.6584  14.6584  14.6978
    14.6978  14.9314  15.0082  15.0082  18.5304  22.1260  22.8896  22.8896
    26.0496  26.0496

          k = 0.2500 0.0000 0.2500 (  3874 PWs)   bands (ev):

   -87.6690 -87.6668 -87.6667 -87.6664 -48.0905 -48.0905 -48.0901 -48.0844
   -48.0785 -48.0785 -48.0758 -48.0753 -48.0753 -48.0752 -48.0693 -48.0666
    -4.5911  -3.7135  -3.7135  -3.5472   8.4907   8.4907   8.8974   9.2380
    10.0223  10.3852  10.3852  10.3958  10.3958  10.4085  10.9726  11.3847
    13.4740  13.4740  13.6806  13.7667  13.9969  14.1402  14.3907  14.3959
    14.3959  14.5269  14.6945  14.6945  14.7062  14.7543  14.7543  14.8655
    15.3866  15.4034  15.4034  15.4833  19.3246  22.8103  22.8103  23.5755
    25.9550  26.0474

          k = 0.2500 0.0000 0.5000 (  3846 PWs)   bands (ev):

   -87.6679 -87.6679 -87.6666 -87.6665 -48.0885 -48.0885 -48.0843 -48.0843
   -48.0843 -48.0843 -48.0742 -48.0742 -48.0739 -48.0739 -48.0699 -48.0699
    -4.1218  -4.1218  -3.5747  -3.5747   8.5759   8.5759   8.7842   8.7842
     9.4739   9.4739  10.0468  10.0468  10.5767  10.5767  10.7557  10.7558
    13.6562  13.6562  14.2303  14.2303  14.2408  14.2408  14.2464  14.2464
    14.5759  14.5759  14.6996  14.6996  14.7045  14.7045  14.8356  14.8356
    15.8663  15.8663  15.9084  15.9084  21.3491  21.3491  24.3211  24.3211
    25.2500  25.2500

          k = 0.2500 0.0000 0.7500 (  3874 PWs)   bands (ev):

   -87.6690 -87.6668 -87.6667 -87.6664 -48.0905 -48.0905 -48.0901 -48.0844
   -48.0785 -48.0785 -48.0758 -48.0753 -48.0753 -48.0752 -48.0693 -48.0666
    -4.5911  -3.7135  -3.7135  -3.5472   8.4907   8.4907   8.8974   9.2380
    10.0223  10.3852  10.3852  10.3958  10.3958  10.4085  10.9726  11.3847
    13.4740  13.4740  13.6806  13.7667  13.9969  14.1402  14.3907  14.3959
    14.3959  14.5269  14.6945  14.6945  14.7062  14.7543  14.7543  14.8655
    15.3866  15.4034  15.4034  15.4833  19.3246  22.8103  22.8103  23.5755
    25.9550  26.0474

          k = 0.2500 0.2500 0.0000 (  3874 PWs)   bands (ev):

   -87.6690 -87.6668 -87.6667 -87.6664 -48.0905 -48.0905 -48.0901 -48.0844
   -48.0785 -48.0785 -48.0758 -48.0753 -48.0753 -48.0752 -48.0693 -48.0666
    -4.5911  -3.7135  -3.7135  -3.5472   8.4907   8.4907   8.8974   9.2380
    10.0223  10.3852  10.3852  10.3958  10.3958  10.4085  10.9726  11.3847
    13.4740  13.4740  13.6806  13.7667  13.9969  14.1402  14.3907  14.3959
    14.3959  14.5269  14.6945  14.6945  14.7062  14.7543  14.7543  14.8655
    15.3866  15.4034  15.4034  15.4833  19.3246  22.8103  22.8103  23.5755
    25.9550  26.0474

          k = 0.2500 0.2500 0.2500 (  3872 PWs)   bands (ev):

   -87.6686 -87.6668 -87.6668 -87.6667 -48.0920 -48.0919 -48.0919 -48.0817
   -48.0784 -48.0784 -48.0784 -48.0740 -48.0740 -48.0740 -48.0679 -48.0679
    -4.4054  -3.6565  -3.6565  -3.6565   8.3050   8.3050   8.3050   9.3276
     9.7493   9.7493   9.7493  10.4145  10.4145  10.4145  10.7895  10.7895
    13.7212  13.7212  13.7212  13.9845  13.9845  14.1830  14.5022  14.5022
    14.5022  14.6980  14.6980  14.6980  15.4376  15.4376  15.4376  15.4588
    15.4588  15.4588  15.5302  15.5302  19.8119  23.1239  23.1239  23.1239
    25.4330  25.4330

          k = 0.2500 0.2500 0.5000 (  3848 PWs)   bands (ev):

   -87.6677 -87.6677 -87.6668 -87.6667 -48.0932 -48.0932 -48.0892 -48.0892
   -48.0783 -48.0783 -48.0729 -48.0729 -48.0709 -48.0709 -48.0708 -48.0708
    -3.9922  -3.9921  -3.5976  -3.5976   8.0294   8.0294   8.3376   8.3376
     9.6647   9.6647  10.0780  10.0780  10.2050  10.2050  10.5233  10.5233
    13.8631  13.8632  14.1944  14.1944  14.3261  14.3261  14.3544  14.3544
    14.5774  14.5774  14.6832  14.6832  15.4912  15.4912  15.5625  15.5625
    16.0336  16.0336  16.0858  16.0858  21.3952  21.3952  23.4495  23.4495
    24.9756  24.9756

          k = 0.2500 0.2500 0.7500 (  3872 PWs)   bands (ev):

   -87.6686 -87.6668 -87.6668 -87.6667 -48.0920 -48.0919 -48.0919 -48.0817
   -48.0784 -48.0784 -48.0784 -48.0740 -48.0740 -48.0740 -48.0679 -48.0679
    -4.4054  -3.6565  -3.6565  -3.6565   8.3050   8.3050   8.3050   9.3276
     9.7493   9.7493   9.7493  10.4145  10.4145  10.4145  10.7895  10.7895
    13.7212  13.7212  13.7212  13.9845  13.9845  14.1830  14.5022  14.5022
    14.5022  14.6980  14.6980  14.6980  15.4376  15.4376  15.4376  15.4588
    15.4588  15.4588  15.5302  15.5302  19.8119  23.1239  23.1239  23.1239
    25.4330  25.4330

          k = 0.2500 0.5000 0.0000 (  3846 PWs)   bands (ev):

   -87.6679 -87.6679 -87.6666 -87.6665 -48.0885 -48.0885 -48.0843 -48.0843
   -48.0843 -48.0843 -48.0742 -48.0742 -48.0739 -48.0739 -48.0699 -48.0699
    -4.1218  -4.1218  -3.5747  -3.5747   8.5759   8.5759   8.7842   8.7842
     9.4739   9.4739  10.0468  10.0468  10.5767  10.5767  10.7557  10.7558
    13.6562  13.6562  14.2303  14.2303  14.2408  14.2408  14.2464  14.2464
    14.5759  14.5759  14.6996  14.6996  14.7045  14.7045  14.8356  14.8356
    15.8663  15.8663  15.9084  15.9084  21.3491  21.3491  24.3211  24.3211
    25.2500  25.2500

          k = 0.2500 0.5000 0.2500 (  3848 PWs)   bands (ev):

   -87.6677 -87.6677 -87.6668 -87.6667 -48.0932 -48.0932 -48.0892 -48.0892
   -48.0783 -48.0783 -48.0729 -48.0729 -48.0709 -48.0709 -48.0708 -48.0708
    -3.9922  -3.9921  -3.5976  -3.5976   8.0294   8.0294   8.3376   8.3376
     9.6647   9.6647  10.0780  10.0780  10.2050  10.2050  10.5233  10.5233
    13.8631  13.8632  14.1944  14.1944  14.3261  14.3261  14.3544  14.3544
    14.5774  14.5774  14.6832  14.6832  15.4912  15.4912  15.5625  15.5625
    16.0336  16.0336  16.0858  16.0858  21.3952  21.3952  23.4495  23.4495
    24.9756  24.9756

          k = 0.2500 0.5000 0.5000 (  3848 PWs)   bands (ev):

   -87.6672 -87.6672 -87.6672 -87.6672 -48.0941 -48.0941 -48.0941 -48.0941
   -48.0735 -48.0735 -48.0735 -48.0735 -48.0701 -48.0701 -48.0701 -48.0701
    -3.7404  -3.7404  -3.7404  -3.7404   7.7588   7.7588   7.7588   7.7588
    10.0075  10.0075  10.0075  10.0076  10.0520  10.0520  10.0520  10.0520
    14.2834  14.2834  14.2834  14.2834  14.3166  14.3166  14.3166  14.3166
    14.6681  14.6681  14.6681  14.6681  15.7943  15.7943  15.7943  15.7944
    16.5755  16.5755  16.5755  16.5756  21.9342  21.9342  21.9342  21.9342
    25.6376  25.6376

          k = 0.2500 0.5000 0.7500 (  3848 PWs)   bands (ev):

   -87.6677 -87.6677 -87.6668 -87.6667 -48.0932 -48.0932 -48.0892 -48.0892
   -48.0783 -48.0783 -48.0729 -48.0729 -48.0709 -48.0709 -48.0708 -48.0708
    -3.9922  -3.9921  -3.5976  -3.5976   8.0294   8.0294   8.3376   8.3376
     9.6647   9.6647  10.0780  10.0780  10.2050  10.2050  10.5233  10.5233
    13.8631  13.8632  14.1944  14.1944  14.3261  14.3261  14.3544  14.3544
    14.5774  14.5774  14.6832  14.6832  15.4912  15.4912  15.5625  15.5625
    16.0336  16.0336  16.0858  16.0858  21.3952  21.3952  23.4495  23.4495
    24.9756  24.9756

          k = 0.2500 0.7500 0.0000 (  3874 PWs)   bands (ev):

   -87.6690 -87.6668 -87.6667 -87.6664 -48.0905 -48.0905 -48.0901 -48.0844
   -48.0785 -48.0785 -48.0758 -48.0753 -48.0753 -48.0752 -48.0693 -48.0666
    -4.5911  -3.7135  -3.7135  -3.5472   8.4907   8.4907   8.8974   9.2380
    10.0223  10.3852  10.3852  10.3958  10.3958  10.4085  10.9726  11.3847
    13.4740  13.4740  13.6806  13.7667  13.9969  14.1402  14.3907  14.3959
    14.3959  14.5269  14.6945  14.6945  14.7062  14.7543  14.7543  14.8655
    15.3866  15.4034  15.4034  15.4833  19.3246  22.8103  22.8103  23.5755
    25.9550  26.0474

          k = 0.2500 0.7500 0.2500 (  3872 PWs)   bands (ev):

   -87.6686 -87.6668 -87.6668 -87.6667 -48.0920 -48.0919 -48.0919 -48.0817
   -48.0784 -48.0784 -48.0784 -48.0740 -48.0740 -48.0740 -48.0679 -48.0679
    -4.4054  -3.6565  -3.6565  -3.6565   8.3050   8.3050   8.3050   9.3276
     9.7493   9.7493   9.7493  10.4145  10.4145  10.4145  10.7895  10.7895
    13.7212  13.7212  13.7212  13.9845  13.9845  14.1830  14.5022  14.5022
    14.5022  14.6980  14.6980  14.6980  15.4376  15.4376  15.4376  15.4588
    15.4588  15.4588  15.5302  15.5302  19.8119  23.1239  23.1239  23.1239
    25.4330  25.4330

          k = 0.2500 0.7500 0.5000 (  3848 PWs)   bands (ev):

   -87.6677 -87.6677 -87.6668 -87.6667 -48.0932 -48.0932 -48.0892 -48.0892
   -48.0783 -48.0783 -48.0729 -48.0729 -48.0709 -48.0709 -48.0708 -48.0708
    -3.9922  -3.9921  -3.5976  -3.5976   8.0294   8.0294   8.3376   8.3376
     9.6647   9.6647  10.0780  10.0780  10.2050  10.2050  10.5233  10.5233
    13.8631  13.8632  14.1944  14.1944  14.3261  14.3261  14.3544  14.3544
    14.5774  14.5774  14.6832  14.6832  15.4912  15.4912  15.5625  15.5625
    16.0336  16.0336  16.0858  16.0858  21.3952  21.3952  23.4495  23.4495
    24.9756  24.9756

          k = 0.2500 0.7500 0.7500 (  3872 PWs)   bands (ev):

   -87.6686 -87.6668 -87.6668 -87.6667 -48.0920 -48.0919 -48.0919 -48.0817
   -48.0784 -48.0784 -48.0784 -48.0740 -48.0740 -48.0740 -48.0679 -48.0679
    -4.4054  -3.6565  -3.6565  -3.6565   8.3050   8.3050   8.3050   9.3276
     9.7493   9.7493   9.7493  10.4145  10.4145  10.4145  10.7895  10.7895
    13.7212  13.7212  13.7212  13.9845  13.9845  14.1830  14.5022  14.5022
    14.5022  14.6980  14.6980  14.6980  15.4376  15.4376  15.4376  15.4588
    15.4588  15.4588  15.5302  15.5302  19.8119  23.1239  23.1239  23.1239
    25.4330  25.4330

          k = 0.5000 0.0000 0.0000 (  3868 PWs)   bands (ev):

   -87.6682 -87.6681 -87.6663 -87.6663 -48.0864 -48.0864 -48.0864 -48.0864
   -48.0806 -48.0805 -48.0781 -48.0780 -48.0718 -48.0718 -48.0718 -48.0718
    -4.2777  -4.2777  -3.5134  -3.5133   9.0280   9.0280   9.3161   9.3161
     9.3161   9.3161   9.7115   9.7115  11.3369  11.3369  11.3369  11.3369
    13.0994  13.0994  13.9749  13.9749  14.2637  14.2637  14.2637  14.2637
    14.5565  14.5565  14.5882  14.5882  14.5882  14.5882  14.6592  14.6592
    15.0207  15.0207  15.3977  15.3978  20.9735  20.9735  24.2508  24.2508
    26.2590  26.2590

          k = 0.5000 0.0000 0.2500 (  3846 PWs)   bands (ev):

   -87.6679 -87.6679 -87.6666 -87.6665 -48.0885 -48.0885 -48.0843 -48.0843
   -48.0843 -48.0843 -48.0742 -48.0742 -48.0739 -48.0739 -48.0699 -48.0699
    -4.1218  -4.1218  -3.5747  -3.5747   8.5759   8.5759   8.7842   8.7842
     9.4739   9.4739  10.0468  10.0468  10.5767  10.5767  10.7557  10.7558
    13.6562  13.6562  14.2303  14.2303  14.2408  14.2408  14.2464  14.2464
    14.5759  14.5759  14.6996  14.6996  14.7045  14.7045  14.8356  14.8356
    15.8663  15.8663  15.9084  15.9084  21.3491  21.3491  24.3211  24.3211
    25.2500  25.2500

          k = 0.5000 0.0000 0.5000 (  3900 PWs)   bands (ev):

   -87.6672 -87.6672 -87.6672 -87.6672 -48.0885 -48.0885 -48.0885 -48.0885
   -48.0791 -48.0791 -48.0791 -48.0791 -48.0701 -48.0701 -48.0701 -48.0701
    -3.8025  -3.8025  -3.8025  -3.8025   8.3108   8.3108   8.3108   8.3108
     9.9661   9.9661   9.9661   9.9661  10.1139  10.1139  10.1139  10.1139
    14.1715  14.1715  14.1715  14.1715  14.3396  14.3396  14.3396  14.3396
    14.6350  14.6350  14.6350  14.6350  14.8560  14.8560  14.8560  14.8560
    16.5351  16.5351  16.5351  16.5351  22.5772  22.5772  22.5772  22.5772
    26.6807  26.6807

          k = 0.5000 0.0000 0.7500 (  3846 PWs)   bands (ev):

   -87.6679 -87.6679 -87.6666 -87.6665 -48.0885 -48.0885 -48.0843 -48.0843
   -48.0843 -48.0843 -48.0742 -48.0742 -48.0739 -48.0739 -48.0699 -48.0699
    -4.1218  -4.1218  -3.5747  -3.5747   8.5759   8.5759   8.7842   8.7842
     9.4739   9.4739  10.0468  10.0468  10.5767  10.5767  10.7557  10.7558
    13.6562  13.6562  14.2303  14.2303  14.2408  14.2408  14.2464  14.2464
    14.5759  14.5759  14.6996  14.6996  14.7045  14.7045  14.8356  14.8356
    15.8663  15.8663  15.9084  15.9084  21.3491  21.3491  24.3211  24.3211
    25.2500  25.2500

          k = 0.5000 0.2500 0.0000 (  3846 PWs)   bands (ev):

   -87.6679 -87.6679 -87.6666 -87.6665 -48.0885 -48.0885 -48.0843 -48.0843
   -48.0843 -48.0843 -48.0742 -48.0742 -48.0739 -48.0739 -48.0699 -48.0699
    -4.1218  -4.1218  -3.5747  -3.5747   8.5759   8.5759   8.7842   8.7842
     9.4739   9.4739  10.0468  10.0468  10.5767  10.5767  10.7557  10.7558
    13.6562  13.6562  14.2303  14.2303  14.2408  14.2408  14.2464  14.2464
    14.5759  14.5759  14.6996  14.6996  14.7045  14.7045  14.8356  14.8356
    15.8663  15.8663  15.9084  15.9084  21.3491  21.3491  24.3211  24.3211
    25.2500  25.2500

          k = 0.5000 0.2500 0.2500 (  3848 PWs)   bands (ev):

   -87.6677 -87.6677 -87.6668 -87.6667 -48.0932 -48.0932 -48.0892 -48.0892
   -48.0783 -48.0783 -48.0729 -48.0729 -48.0709 -48.0709 -48.0708 -48.0708
    -3.9922  -3.9921  -3.5976  -3.5976   8.0294   8.0294   8.3376   8.3376
     9.6647   9.6647  10.0780  10.0780  10.2050  10.2050  10.5233  10.5233
    13.8631  13.8632  14.1944  14.1944  14.3261  14.3261  14.3544  14.3544
    14.5774  14.5774  14.6832  14.6832  15.4912  15.4912  15.5625  15.5625
    16.0336  16.0336  16.0858  16.0858  21.3952  21.3952  23.4495  23.4495
    24.9756  24.9756

          k = 0.5000 0.2500 0.5000 (  3848 PWs)   bands (ev):

   -87.6672 -87.6672 -87.6672 -87.6672 -48.0941 -48.0941 -48.0941 -48.0941
   -48.0735 -48.0735 -48.0735 -48.0735 -48.0701 -48.0701 -48.0701 -48.0701
    -3.7404  -3.7404  -3.7404  -3.7404   7.7588   7.7588   7.7588   7.7588
    10.0075  10.0075  10.0075  10.0076  10.0520  10.0520  10.0520  10.0520
    14.2834  14.2834  14.2834  14.2834  14.3166  14.3166  14.3166  14.3166
    14.6681  14.6681  14.6681  14.6681  15.7943  15.7943  15.7943  15.7944
    16.5755  16.5755  16.5755  16.5756  21.9342  21.9342  21.9342  21.9342
    25.6376  25.6376

          k = 0.5000 0.2500 0.7500 (  3848 PWs)   bands (ev):

   -87.6677 -87.6677 -87.6668 -87.6667 -48.0932 -48.0932 -48.0892 -48.0892
   -48.0783 -48.0783 -48.0729 -48.0729 -48.0709 -48.0709 -48.0708 -48.0708
    -3.9922  -3.9921  -3.5976  -3.5976   8.0294   8.0294   8.3376   8.3376
     9.6647   9.6647  10.0780  10.0780  10.2050  10.2050  10.5233  10.5233
    13.8631  13.8632  14.1944  14.1944  14.3261  14.3261  14.3544  14.3544
    14.5774  14.5774  14.6832  14.6832  15.4912  15.4912  15.5625  15.5625
    16.0336  16.0336  16.0858  16.0858  21.3952  21.3952  23.4495  23.4495
    24.9756  24.9756

          k = 0.5000 0.5000 0.0000 (  3900 PWs)   bands (ev):

   -87.6672 -87.6672 -87.6672 -87.6672 -48.0885 -48.0885 -48.0885 -48.0885
   -48.0791 -48.0791 -48.0791 -48.0791 -48.0701 -48.0701 -48.0701 -48.0701
    -3.8025  -3.8025  -3.8025  -3.8025   8.3108   8.3108   8.3108   8.3108
     9.9661   9.9661   9.9661   9.9661  10.1139  10.1139  10.1139  10.1139
    14.1715  14.1715  14.1715  14.1715  14.3396  14.3396  14.3396  14.3396
    14.6350  14.6350  14.6350  14.6350  14.8560  14.8560  14.8560  14.8560
    16.5351  16.5351  16.5351  16.5351  22.5772  22.5772  22.5772  22.5772
    26.6807  26.6807

          k = 0.5000 0.5000 0.2500 (  3848 PWs)   bands (ev):

   -87.6672 -87.6672 -87.6672 -87.6672 -48.0941 -48.0941 -48.0941 -48.0941
   -48.0735 -48.0735 -48.0735 -48.0735 -48.0701 -48.0701 -48.0701 -48.0701
    -3.7404  -3.7404  -3.7404  -3.7404   7.7588   7.7588   7.7588   7.7588
    10.0075  10.0075  10.0075  10.0076  10.0520  10.0520  10.0520  10.0520
    14.2834  14.2834  14.2834  14.2834  14.3166  14.3166  14.3166  14.3166
    14.6681  14.6681  14.6681  14.6681  15.7943  15.7943  15.7943  15.7944
    16.5755  16.5755  16.5755  16.5756  21.9342  21.9342  21.9342  21.9342
    25.6376  25.6376

          k = 0.5000 0.5000 0.5000 (  3840 PWs)   bands (ev):

   -87.6672 -87.6672 -87.6672 -87.6672 -48.0976 -48.0976 -48.0976 -48.0976
   -48.0701 -48.0701 -48.0701 -48.0701 -48.0701 -48.0701 -48.0701 -48.0701
    -3.6779  -3.6779  -3.6779  -3.6779   7.3057   7.3057   7.3057   7.3057
     9.9898   9.9898   9.9898   9.9898   9.9898   9.9898   9.9898   9.9898
    14.3900  14.3900  14.3900  14.3900  14.3900  14.3901  14.3901  14.3901
    14.7638  14.7638  14.7638  14.7638  16.6168  16.6168  16.6168  16.6169
    16.6169  16.6169  16.6169  16.6169  21.1986  21.1986  21.1986  21.1986
    25.5695  25.5695

          k = 0.5000 0.5000 0.7500 (  3848 PWs)   bands (ev):

   -87.6672 -87.6672 -87.6672 -87.6672 -48.0941 -48.0941 -48.0941 -48.0941
   -48.0735 -48.0735 -48.0735 -48.0735 -48.0701 -48.0701 -48.0701 -48.0701
    -3.7404  -3.7404  -3.7404  -3.7404   7.7588   7.7588   7.7588   7.7588
    10.0075  10.0075  10.0075  10.0076  10.0520  10.0520  10.0520  10.0520
    14.2834  14.2834  14.2834  14.2834  14.3166  14.3166  14.3166  14.3166
    14.6681  14.6681  14.6681  14.6681  15.7943  15.7943  15.7943  15.7944
    16.5755  16.5755  16.5755  16.5756  21.9342  21.9342  21.9342  21.9342
    25.6376  25.6376

          k = 0.5000 0.7500 0.0000 (  3846 PWs)   bands (ev):

   -87.6679 -87.6679 -87.6666 -87.6665 -48.0885 -48.0885 -48.0843 -48.0843
   -48.0843 -48.0843 -48.0742 -48.0742 -48.0739 -48.0739 -48.0699 -48.0699
    -4.1218  -4.1218  -3.5747  -3.5747   8.5759   8.5759   8.7842   8.7842
     9.4739   9.4739  10.0468  10.0468  10.5767  10.5767  10.7557  10.7558
    13.6562  13.6562  14.2303  14.2303  14.2408  14.2408  14.2464  14.2464
    14.5759  14.5759  14.6996  14.6996  14.7045  14.7045  14.8356  14.8356
    15.8663  15.8663  15.9084  15.9084  21.3491  21.3491  24.3211  24.3211
    25.2500  25.2500

          k = 0.5000 0.7500 0.2500 (  3848 PWs)   bands (ev):

   -87.6677 -87.6677 -87.6668 -87.6667 -48.0932 -48.0932 -48.0892 -48.0892
   -48.0783 -48.0783 -48.0729 -48.0729 -48.0709 -48.0709 -48.0708 -48.0708
    -3.9922  -3.9921  -3.5976  -3.5976   8.0294   8.0294   8.3376   8.3376
     9.6647   9.6647  10.0780  10.0780  10.2050  10.2050  10.5233  10.5233
    13.8631  13.8632  14.1944  14.1944  14.3261  14.3261  14.3544  14.3544
    14.5774  14.5774  14.6832  14.6832  15.4912  15.4912  15.5625  15.5625
    16.0336  16.0336  16.0858  16.0858  21.3952  21.3952  23.4495  23.4495
    24.9756  24.9756

          k = 0.5000 0.7500 0.5000 (  3848 PWs)   bands (ev):

   -87.6672 -87.6672 -87.6672 -87.6672 -48.0941 -48.0941 -48.0941 -48.0941
   -48.0735 -48.0735 -48.0735 -48.0735 -48.0701 -48.0701 -48.0701 -48.0701
    -3.7404  -3.7404  -3.7404  -3.7404   7.7588   7.7588   7.7588   7.7588
    10.0075  10.0075  10.0075  10.0076  10.0520  10.0520  10.0520  10.0520
    14.2834  14.2834  14.2834  14.2834  14.3166  14.3166  14.3166  14.3166
    14.6681  14.6681  14.6681  14.6681  15.7943  15.7943  15.7943  15.7944
    16.5755  16.5755  16.5755  16.5756  21.9342  21.9342  21.9342  21.9342
    25.6376  25.6376

          k = 0.5000 0.7500 0.7500 (  3848 PWs)   bands (ev):

   -87.6677 -87.6677 -87.6668 -87.6667 -48.0932 -48.0932 -48.0892 -48.0892
   -48.0783 -48.0783 -48.0729 -48.0729 -48.0709 -48.0709 -48.0708 -48.0708
    -3.9922  -3.9921  -3.5976  -3.5976   8.0294   8.0294   8.3376   8.3376
     9.6647   9.6647  10.0780  10.0780  10.2050  10.2050  10.5233  10.5233
    13.8631  13.8632  14.1944  14.1944  14.3261  14.3261  14.3544  14.3544
    14.5774  14.5774  14.6832  14.6832  15.4912  15.4912  15.5625  15.5625
    16.0336  16.0336  16.0858  16.0858  21.3952  21.3952  23.4495  23.4495
    24.9756  24.9756

          k = 0.7500 0.0000 0.0000 (  3867 PWs)   bands (ev):

   -87.6695 -87.6668 -87.6663 -87.6663 -48.0925 -48.0925 -48.0908 -48.0804
   -48.0804 -48.0780 -48.0780 -48.0761 -48.0761 -48.0701 -48.0675 -48.0675
    -4.7958  -3.7986  -3.5690  -3.5690   8.4739   8.7085   8.7085  10.2750
    10.2750  10.2801  10.2801  10.6514  11.1014  11.1014  11.8632  11.8632
    12.7665  13.4093  13.4093  13.4414  13.8407  14.0734  14.0734  14.1112
    14.5033  14.5033  14.6055  14.6055  14.6232  14.6584  14.6584  14.6978
    14.6978  14.9314  15.0082  15.0082  18.5304  22.1260  22.8896  22.8896
    26.0496  26.0496

          k = 0.7500 0.0000 0.2500 (  3874 PWs)   bands (ev):

   -87.6690 -87.6668 -87.6667 -87.6664 -48.0905 -48.0905 -48.0901 -48.0844
   -48.0785 -48.0785 -48.0758 -48.0753 -48.0753 -48.0752 -48.0693 -48.0666
    -4.5911  -3.7135  -3.7135  -3.5472   8.4907   8.4907   8.8974   9.2380
    10.0223  10.3852  10.3852  10.3958  10.3958  10.4085  10.9726  11.3847
    13.4740  13.4740  13.6806  13.7667  13.9969  14.1402  14.3907  14.3959
    14.3959  14.5269  14.6945  14.6945  14.7062  14.7543  14.7543  14.8655
    15.3866  15.4034  15.4034  15.4833  19.3246  22.8103  22.8103  23.5755
    25.9550  26.0474

          k = 0.7500 0.0000 0.5000 (  3846 PWs)   bands (ev):

   -87.6679 -87.6679 -87.6666 -87.6665 -48.0885 -48.0885 -48.0843 -48.0843
   -48.0843 -48.0843 -48.0742 -48.0742 -48.0739 -48.0739 -48.0699 -48.0699
    -4.1218  -4.1218  -3.5747  -3.5747   8.5759   8.5759   8.7842   8.7842
     9.4739   9.4739  10.0468  10.0468  10.5767  10.5767  10.7557  10.7558
    13.6562  13.6562  14.2303  14.2303  14.2408  14.2408  14.2464  14.2464
    14.5759  14.5759  14.6996  14.6996  14.7045  14.7045  14.8356  14.8356
    15.8663  15.8663  15.9084  15.9084  21.3491  21.3491  24.3211  24.3211
    25.2500  25.2500

          k = 0.7500 0.0000 0.7500 (  3874 PWs)   bands (ev):

   -87.6690 -87.6668 -87.6667 -87.6664 -48.0905 -48.0905 -48.0901 -48.0844
   -48.0785 -48.0785 -48.0758 -48.0753 -48.0753 -48.0752 -48.0693 -48.0666
    -4.5911  -3.7135  -3.7135  -3.5472   8.4907   8.4907   8.8974   9.2380
    10.0223  10.3852  10.3852  10.3958  10.3958  10.4085  10.9726  11.3847
    13.4740  13.4740  13.6806  13.7667  13.9969  14.1402  14.3907  14.3959
    14.3959  14.5269  14.6945  14.6945  14.7062  14.7543  14.7543  14.8655
    15.3866  15.4034  15.4034  15.4833  19.3246  22.8103  22.8103  23.5755
    25.9550  26.0474

          k = 0.7500 0.2500 0.0000 (  3874 PWs)   bands (ev):

   -87.6690 -87.6668 -87.6667 -87.6664 -48.0905 -48.0905 -48.0901 -48.0844
   -48.0785 -48.0785 -48.0758 -48.0753 -48.0753 -48.0752 -48.0693 -48.0666
    -4.5911  -3.7135  -3.7135  -3.5472   8.4907   8.4907   8.8974   9.2380
    10.0223  10.3852  10.3852  10.3958  10.3958  10.4085  10.9726  11.3847
    13.4740  13.4740  13.6806  13.7667  13.9969  14.1402  14.3907  14.3959
    14.3959  14.5269  14.6945  14.6945  14.7062  14.7543  14.7543  14.8655
    15.3866  15.4034  15.4034  15.4833  19.3246  22.8103  22.8103  23.5755
    25.9550  26.0474

          k = 0.7500 0.2500 0.2500 (  3872 PWs)   bands (ev):

   -87.6686 -87.6668 -87.6668 -87.6667 -48.0920 -48.0919 -48.0919 -48.0817
   -48.0784 -48.0784 -48.0784 -48.0740 -48.0740 -48.0740 -48.0679 -48.0679
    -4.4054  -3.6565  -3.6565  -3.6565   8.3050   8.3050   8.3050   9.3276
     9.7493   9.7493   9.7493  10.4145  10.4145  10.4145  10.7895  10.7895
    13.7212  13.7212  13.7212  13.9845  13.9845  14.1830  14.5022  14.5022
    14.5022  14.6980  14.6980  14.6980  15.4376  15.4376  15.4376  15.4588
    15.4588  15.4588  15.5302  15.5302  19.8119  23.1239  23.1239  23.1239
    25.4330  25.4330

          k = 0.7500 0.2500 0.5000 (  3848 PWs)   bands (ev):

   -87.6677 -87.6677 -87.6668 -87.6667 -48.0932 -48.0932 -48.0892 -48.0892
   -48.0783 -48.0783 -48.0729 -48.0729 -48.0709 -48.0709 -48.0708 -48.0708
    -3.9922  -3.9921  -3.5976  -3.5976   8.0294   8.0294   8.3376   8.3376
     9.6647   9.6647  10.0780  10.0780  10.2050  10.2050  10.5233  10.5233
    13.8631  13.8632  14.1944  14.1944  14.3261  14.3261  14.3544  14.3544
    14.5774  14.5774  14.6832  14.6832  15.4912  15.4912  15.5625  15.5625
    16.0336  16.0336  16.0858  16.0858  21.3952  21.3952  23.4495  23.4495
    24.9756  24.9756

          k = 0.7500 0.2500 0.7500 (  3872 PWs)   bands (ev):

   -87.6686 -87.6668 -87.6668 -87.6667 -48.0920 -48.0919 -48.0919 -48.0817
   -48.0784 -48.0784 -48.0784 -48.0740 -48.0740 -48.0740 -48.0679 -48.0679
    -4.4054  -3.6565  -3.6565  -3.6565   8.3050   8.3050   8.3050   9.3276
     9.7493   9.7493   9.7493  10.4145  10.4145  10.4145  10.7895  10.7895
    13.7212  13.7212  13.7212  13.9845  13.9845  14.1830  14.5022  14.5022
    14.5022  14.6980  14.6980  14.6980  15.4376  15.4376  15.4376  15.4588
    15.4588  15.4588  15.5302  15.5302  19.8119  23.1239  23.1239  23.1239
    25.4330  25.4330

          k = 0.7500 0.5000 0.0000 (  3846 PWs)   bands (ev):

   -87.6679 -87.6679 -87.6666 -87.6665 -48.0885 -48.0885 -48.0843 -48.0843
   -48.0843 -48.0843 -48.0742 -48.0742 -48.0739 -48.0739 -48.0699 -48.0699
    -4.1218  -4.1218  -3.5747  -3.5747   8.5759   8.5759   8.7842   8.7842
     9.4739   9.4739  10.0468  10.0468  10.5767  10.5767  10.7557  10.7558
    13.6562  13.6562  14.2303  14.2303  14.2408  14.2408  14.2464  14.2464
    14.5759  14.5759  14.6996  14.6996  14.7045  14.7045  14.8356  14.8356
    15.8663  15.8663  15.9084  15.9084  21.3491  21.3491  24.3211  24.3211
    25.2500  25.2500

          k = 0.7500 0.5000 0.2500 (  3848 PWs)   bands (ev):

   -87.6677 -87.6677 -87.6668 -87.6667 -48.0932 -48.0932 -48.0892 -48.0892
   -48.0783 -48.0783 -48.0729 -48.0729 -48.0709 -48.0709 -48.0708 -48.0708
    -3.9922  -3.9921  -3.5976  -3.5976   8.0294   8.0294   8.3376   8.3376
     9.6647   9.6647  10.0780  10.0780  10.2050  10.2050  10.5233  10.5233
    13.8631  13.8632  14.1944  14.1944  14.3261  14.3261  14.3544  14.3544
    14.5774  14.5774  14.6832  14.6832  15.4912  15.4912  15.5625  15.5625
    16.0336  16.0336  16.0858  16.0858  21.3952  21.3952  23.4495  23.4495
    24.9756  24.9756

          k = 0.7500 0.5000 0.5000 (  3848 PWs)   bands (ev):

   -87.6672 -87.6672 -87.6672 -87.6672 -48.0941 -48.0941 -48.0941 -48.0941
   -48.0735 -48.0735 -48.0735 -48.0735 -48.0701 -48.0701 -48.0701 -48.0701
    -3.7404  -3.7404  -3.7404  -3.7404   7.7588   7.7588   7.7588   7.7588
    10.0075  10.0075  10.0075  10.0076  10.0520  10.0520  10.0520  10.0520
    14.2834  14.2834  14.2834  14.2834  14.3166  14.3166  14.3166  14.3166
    14.6681  14.6681  14.6681  14.6681  15.7943  15.7943  15.7943  15.7944
    16.5755  16.5755  16.5755  16.5756  21.9342  21.9342  21.9342  21.9342
    25.6376  25.6376

          k = 0.7500 0.5000 0.7500 (  3848 PWs)   bands (ev):

   -87.6677 -87.6677 -87.6668 -87.6667 -48.0932 -48.0932 -48.0892 -48.0892
   -48.0783 -48.0783 -48.0729 -48.0729 -48.0709 -48.0709 -48.0708 -48.0708
    -3.9922  -3.9921  -3.5976  -3.5976   8.0294   8.0294   8.3376   8.3376
     9.6647   9.6647  10.0780  10.0780  10.2050  10.2050  10.5233  10.5233
    13.8631  13.8632  14.1944  14.1944  14.3261  14.3261  14.3544  14.3544
    14.5774  14.5774  14.6832  14.6832  15.4912  15.4912  15.5625  15.5625
    16.0336  16.0336  16.0858  16.0858  21.3952  21.3952  23.4495  23.4495
    24.9756  24.9756

          k = 0.7500 0.7500 0.0000 (  3874 PWs)   bands (ev):

   -87.6690 -87.6668 -87.6667 -87.6664 -48.0905 -48.0905 -48.0901 -48.0844
   -48.0785 -48.0785 -48.0758 -48.0753 -48.0753 -48.0752 -48.0693 -48.0666
    -4.5911  -3.7135  -3.7135  -3.5472   8.4907   8.4907   8.8974   9.2380
    10.0223  10.3852  10.3852  10.3958  10.3958  10.4085  10.9726  11.3847
    13.4740  13.4740  13.6806  13.7667  13.9969  14.1402  14.3907  14.3959
    14.3959  14.5269  14.6945  14.6945  14.7062  14.7543  14.7543  14.8655
    15.3866  15.4034  15.4034  15.4833  19.3246  22.8103  22.8103  23.5755
    25.9550  26.0474

          k = 0.7500 0.7500 0.2500 (  3872 PWs)   bands (ev):

   -87.6686 -87.6668 -87.6668 -87.6667 -48.0920 -48.0919 -48.0919 -48.0817
   -48.0784 -48.0784 -48.0784 -48.0740 -48.0740 -48.0740 -48.0679 -48.0679
    -4.4054  -3.6565  -3.6565  -3.6565   8.3050   8.3050   8.3050   9.3276
     9.7493   9.7493   9.7493  10.4145  10.4145  10.4145  10.7895  10.7895
    13.7212  13.7212  13.7212  13.9845  13.9845  14.1830  14.5022  14.5022
    14.5022  14.6980  14.6980  14.6980  15.4376  15.4376  15.4376  15.4588
    15.4588  15.4588  15.5302  15.5302  19.8119  23.1239  23.1239  23.1239
    25.4330  25.4330

          k = 0.7500 0.7500 0.5000 (  3848 PWs)   bands (ev):

   -87.6677 -87.6677 -87.6668 -87.6667 -48.0932 -48.0932 -48.0892 -48.0892
   -48.0783 -48.0783 -48.0729 -48.0729 -48.0709 -48.0709 -48.0708 -48.0708
    -3.9922  -3.9921  -3.5976  -3.5976   8.0294   8.0294   8.3376   8.3376
     9.6647   9.6647  10.0780  10.0780  10.2050  10.2050  10.5233  10.5233
    13.8631  13.8632  14.1944  14.1944  14.3261  14.3261  14.3544  14.3544
    14.5774  14.5774  14.6832  14.6832  15.4912  15.4912  15.5625  15.5625
    16.0336  16.0336  16.0858  16.0858  21.3952  21.3952  23.4495  23.4495
    24.9756  24.9756

          k = 0.7500 0.7500 0.7500 (  3872 PWs)   bands (ev):

   -87.6686 -87.6668 -87.6668 -87.6667 -48.0920 -48.0919 -48.0919 -48.0817
   -48.0784 -48.0784 -48.0784 -48.0740 -48.0740 -48.0740 -48.0679 -48.0679
    -4.4054  -3.6565  -3.6565  -3.6565   8.3050   8.3050   8.3050   9.3276
     9.7493   9.7493   9.7493  10.4145  10.4145  10.4145  10.7895  10.7895
    13.7212  13.7212  13.7212  13.9845  13.9845  14.1830  14.5022  14.5022
    14.5022  14.6980  14.6980  14.6980  15.4376  15.4376  15.4376  15.4588
    15.4588  15.4588  15.5302  15.5302  19.8119  23.1239  23.1239  23.1239
    25.4330  25.4330

     the Fermi energy is    15.4525 ev

     Writing output data file nio.save/

     init_run     :      0.29s CPU      0.30s WALL (       1 calls)
     electrons    :    235.29s CPU    237.03s WALL (       1 calls)

     Called by init_run:
     wfcinit      :      0.00s CPU      0.00s WALL (       1 calls)
     potinit      :      0.05s CPU      0.05s WALL (       1 calls)
     hinit0       :      0.22s CPU      0.22s WALL (       1 calls)

     Called by electrons:
     c_bands      :    235.28s CPU    237.03s WALL (       1 calls)
     v_of_rho     :      0.05s CPU      0.05s WALL (       1 calls)

     Called by c_bands:
     init_us_2    :      0.25s CPU      0.27s WALL (      64 calls)
     cegterg      :    223.81s CPU    225.20s WALL (     140 calls)

     Called by sum_band:

     Called by *egterg:
     h_psi        :    134.03s CPU    134.91s WALL (    2171 calls)
     g_psi        :      2.01s CPU      2.03s WALL (    1967 calls)
     cdiaghg      :     20.55s CPU     20.60s WALL (    2031 calls)

     Called by h_psi:
     h_psi:pot    :    133.35s CPU    133.80s WALL (    2171 calls)
     h_psi:calbec :     12.59s CPU     12.63s WALL (    2171 calls)
     vloc_psi     :    108.14s CPU    108.53s WALL (    2171 calls)
     add_vuspsi   :     12.60s CPU     12.62s WALL (    2171 calls)

     General routines
     calbec       :     12.58s CPU     12.62s WALL (    2171 calls)
     fft          :      0.01s CPU      0.01s WALL (      10 calls)
     fftw         :     94.30s CPU     94.67s WALL (  138468 calls)
     davcio       :      0.01s CPU      0.22s WALL (     128 calls)


     PWSCF        :   3m55.90s CPU   3m57.93s WALL


   This run was terminated on:  11:41:52  22May2019            

=------------------------------------------------------------------------------=
   JOB DONE.
=------------------------------------------------------------------------------=
