
     Program PWSCF v.6.4 starts on 22May2019 at 11:33:44 

     This program is part of the open-source Quantum ESPRESSO suite
     for quantum simulation of materials; please cite
         "P. Giannozzi et al., J. Phys.:Condens. Matter 21 395502 (2009);
         "P. Giannozzi et al., J. Phys.:Condens. Matter 29 465901 (2017);
          URL http://www.quantum-espresso.org", 
     in publications or presentations arising from this work. More details at
     http://www.quantum-espresso.org/quote

     Serial version
     Waiting for input...
     Reading input from standard input

     Current dimensions of program PWSCF are:
     Max number of different atomic species (ntypx) = 10
     Max number of k-points (npk) =  40000
     Max angular momentum in pseudopotentials (lmaxx) =  3
     Found symmetry operation: I + (  0.0000 -0.5000 -0.5000)
     This is a supercell, fractional translations are disabled

     G-vector sticks info
     --------------------
     sticks:   dense  smooth     PW     G-vecs:    dense   smooth      PW
     Sum        1201    1201    349                31031    31031    4945



     bravais-lattice index     =            1
     lattice parameter (alat)  =       7.8934  a.u.
     unit-cell volume          =     491.8017 (a.u.)^3
     number of atoms/cell      =            8
     number of atomic types    =            2
     number of electrons       =        96.00
     number of Kohn-Sham states=           58
     kinetic-energy cutoff     =      60.0000  Ry
     charge density cutoff     =     240.0000  Ry
     convergence threshold     =      1.0E-10
     mixing beta               =       0.3000
     number of iterations used =            8  plain     mixing
     Exchange-correlation      = PBE ( 1  4  3  4 0 0)

     celldm(1)=   7.893386  celldm(2)=   0.000000  celldm(3)=   0.000000
     celldm(4)=   0.000000  celldm(5)=   0.000000  celldm(6)=   0.000000

     crystal axes: (cart. coord. in units of alat)
               a(1) = (   1.000000   0.000000   0.000000 )  
               a(2) = (   0.000000   1.000000   0.000000 )  
               a(3) = (   0.000000   0.000000   1.000000 )  

     reciprocal axes: (cart. coord. in units 2 pi/alat)
               b(1) = (  1.000000  0.000000  0.000000 )  
               b(2) = (  0.000000  1.000000  0.000000 )  
               b(3) = (  0.000000  0.000000  1.000000 )  


     PseudoPot. # 1 for O  read from file:
     /home/dirac/tmcs/newc5616/wannier90-3.0.0/pseudo/O_ONCV_PBE-1.0.upf
     MD5 check sum: 80a85145cbbb6f60b39549a50e3ff56c
     Pseudo is Norm-conserving, Zval =  6.0
     Generated using ONCVPSP code by D. R. Hamann
     Using radial grid of  602 points,  4 beta functions with: 
                l(1) =   0
                l(2) =   0
                l(3) =   1
                l(4) =   1

     PseudoPot. # 2 for Ni read from file:
     /home/dirac/tmcs/newc5616/wannier90-3.0.0/pseudo/Ni_ONCV_PBE-1.0.upf
     MD5 check sum: b4845633f316de50760b86b4f4abc5a4
     Pseudo is Norm-conserving, Zval = 18.0
     Generated using ONCVPSP code by D. R. Hamann
     Using radial grid of  602 points,  6 beta functions with: 
                l(1) =   0
                l(2) =   0
                l(3) =   1
                l(4) =   1
                l(5) =   2
                l(6) =   2

     atomic species   valence    mass     pseudopotential
        O              6.00     8.00000     O ( 1.00)
        Ni            18.00    28.00000     Ni( 1.00)

     48 Sym. Ops., with inversion, found



   Cartesian axes

     site n.     atom                  positions (alat units)
         1           O   tau(   1) = (   0.0000000   0.0000000   0.0000000  )
         2           O   tau(   2) = (   0.0000000   0.5000000   0.5000000  )
         3           O   tau(   3) = (   0.5000000   0.0000000   0.5000000  )
         4           O   tau(   4) = (   0.5000000   0.5000000   0.0000000  )
         5           Ni  tau(   5) = (   0.5000000   0.5000000   0.5000000  )
         6           Ni  tau(   6) = (   0.0000000   0.0000000   0.5000000  )
         7           Ni  tau(   7) = (   0.0000000   0.5000000   0.0000000  )
         8           Ni  tau(   8) = (   0.5000000   0.0000000   0.0000000  )

     number of k points=    35  gaussian smearing, width (Ry)=  0.0100
                       cart. coord. in units 2pi/alat
        k(    1) = (   0.0000000   0.0000000   0.0000000), wk =   0.0039062
        k(    2) = (   0.0000000   0.0000000   0.1250000), wk =   0.0234375
        k(    3) = (   0.0000000   0.0000000   0.2500000), wk =   0.0234375
        k(    4) = (   0.0000000   0.0000000   0.3750000), wk =   0.0234375
        k(    5) = (   0.0000000   0.0000000  -0.5000000), wk =   0.0117188
        k(    6) = (   0.0000000   0.1250000   0.1250000), wk =   0.0468750
        k(    7) = (   0.0000000   0.1250000   0.2500000), wk =   0.0937500
        k(    8) = (   0.0000000   0.1250000   0.3750000), wk =   0.0937500
        k(    9) = (   0.0000000   0.1250000  -0.5000000), wk =   0.0468750
        k(   10) = (   0.0000000   0.2500000   0.2500000), wk =   0.0468750
        k(   11) = (   0.0000000   0.2500000   0.3750000), wk =   0.0937500
        k(   12) = (   0.0000000   0.2500000  -0.5000000), wk =   0.0468750
        k(   13) = (   0.0000000   0.3750000   0.3750000), wk =   0.0468750
        k(   14) = (   0.0000000   0.3750000  -0.5000000), wk =   0.0468750
        k(   15) = (   0.0000000  -0.5000000  -0.5000000), wk =   0.0117188
        k(   16) = (   0.1250000   0.1250000   0.1250000), wk =   0.0312500
        k(   17) = (   0.1250000   0.1250000   0.2500000), wk =   0.0937500
        k(   18) = (   0.1250000   0.1250000   0.3750000), wk =   0.0937500
        k(   19) = (   0.1250000   0.1250000  -0.5000000), wk =   0.0468750
        k(   20) = (   0.1250000   0.2500000   0.2500000), wk =   0.0937500
        k(   21) = (   0.1250000   0.2500000   0.3750000), wk =   0.1875000
        k(   22) = (   0.1250000   0.2500000  -0.5000000), wk =   0.0937500
        k(   23) = (   0.1250000   0.3750000   0.3750000), wk =   0.0937500
        k(   24) = (   0.1250000   0.3750000  -0.5000000), wk =   0.0937500
        k(   25) = (   0.1250000  -0.5000000  -0.5000000), wk =   0.0234375
        k(   26) = (   0.2500000   0.2500000   0.2500000), wk =   0.0312500
        k(   27) = (   0.2500000   0.2500000   0.3750000), wk =   0.0937500
        k(   28) = (   0.2500000   0.2500000  -0.5000000), wk =   0.0468750
        k(   29) = (   0.2500000   0.3750000   0.3750000), wk =   0.0937500
        k(   30) = (   0.2500000   0.3750000  -0.5000000), wk =   0.0937500
        k(   31) = (   0.2500000  -0.5000000  -0.5000000), wk =   0.0234375
        k(   32) = (   0.3750000   0.3750000   0.3750000), wk =   0.0312500
        k(   33) = (   0.3750000   0.3750000  -0.5000000), wk =   0.0468750
        k(   34) = (   0.3750000  -0.5000000  -0.5000000), wk =   0.0234375
        k(   35) = (  -0.5000000  -0.5000000  -0.5000000), wk =   0.0039062

     Dense  grid:    31031 G-vectors     FFT dimensions: (  40,  40,  40)

     Estimated max dynamical RAM per process >     180.36 MB

     Initial potential from superposition of free atoms

     starting charge   95.87032, renormalised to   96.00000
     Starting wfcs are random

     total cpu time spent up to now is        6.5 secs

     Self-consistent Calculation

     iteration #  1     ecut=    60.00 Ry     beta= 0.30
     Davidson diagonalization with overlap
     ethr =  1.00E-02,  avg # of iterations =  7.4

     Threshold (ethr) on eigenvalues was too large:
     Diagonalizing with lowered threshold

     Davidson diagonalization with overlap
     ethr =  4.50E-04,  avg # of iterations =  1.0

     total cpu time spent up to now is       71.3 secs

     total energy              =   -1360.61817411 Ry
     Harris-Foulkes estimate   =   -1360.74630188 Ry
     estimated scf accuracy    <       0.43142113 Ry

     iteration #  2     ecut=    60.00 Ry     beta= 0.30
     Davidson diagonalization with overlap
     ethr =  4.49E-04,  avg # of iterations =  2.0

     total cpu time spent up to now is       86.2 secs

     total energy              =   -1360.63853258 Ry
     Harris-Foulkes estimate   =   -1360.66507338 Ry
     estimated scf accuracy    <       0.10851723 Ry

     iteration #  3     ecut=    60.00 Ry     beta= 0.30
     Davidson diagonalization with overlap
     ethr =  1.13E-04,  avg # of iterations =  2.0

     total cpu time spent up to now is      100.9 secs

     total energy              =   -1360.64178763 Ry
     Harris-Foulkes estimate   =   -1360.64963834 Ry
     estimated scf accuracy    <       0.04138330 Ry

     iteration #  4     ecut=    60.00 Ry     beta= 0.30
     Davidson diagonalization with overlap
     ethr =  4.31E-05,  avg # of iterations =  1.1

     total cpu time spent up to now is      114.7 secs

     total energy              =   -1360.64314970 Ry
     Harris-Foulkes estimate   =   -1360.64413717 Ry
     estimated scf accuracy    <       0.00613106 Ry

     iteration #  5     ecut=    60.00 Ry     beta= 0.30
     Davidson diagonalization with overlap
     ethr =  6.39E-06,  avg # of iterations =  1.4

     total cpu time spent up to now is      128.6 secs

     total energy              =   -1360.64330558 Ry
     Harris-Foulkes estimate   =   -1360.64337593 Ry
     estimated scf accuracy    <       0.00053401 Ry

     iteration #  6     ecut=    60.00 Ry     beta= 0.30
     Davidson diagonalization with overlap
     ethr =  5.56E-07,  avg # of iterations =  1.3

     total cpu time spent up to now is      142.5 secs

     total energy              =   -1360.64333390 Ry
     Harris-Foulkes estimate   =   -1360.64335661 Ry
     estimated scf accuracy    <       0.00015362 Ry

     iteration #  7     ecut=    60.00 Ry     beta= 0.30
     Davidson diagonalization with overlap
     ethr =  1.60E-07,  avg # of iterations =  1.1

     total cpu time spent up to now is      156.2 secs

     total energy              =   -1360.64334322 Ry
     Harris-Foulkes estimate   =   -1360.64334321 Ry
     estimated scf accuracy    <       0.00000946 Ry

     iteration #  8     ecut=    60.00 Ry     beta= 0.30
     Davidson diagonalization with overlap
     ethr =  9.85E-09,  avg # of iterations =  2.0

     total cpu time spent up to now is      172.8 secs

     total energy              =   -1360.64334445 Ry
     Harris-Foulkes estimate   =   -1360.64334472 Ry
     estimated scf accuracy    <       0.00000131 Ry

     iteration #  9     ecut=    60.00 Ry     beta= 0.30
     Davidson diagonalization with overlap
     ethr =  1.37E-09,  avg # of iterations =  1.5

     total cpu time spent up to now is      186.9 secs

     total energy              =   -1360.64334447 Ry
     Harris-Foulkes estimate   =   -1360.64334453 Ry
     estimated scf accuracy    <       0.00000036 Ry

     iteration # 10     ecut=    60.00 Ry     beta= 0.30
     Davidson diagonalization with overlap
     ethr =  3.75E-10,  avg # of iterations =  1.5

     total cpu time spent up to now is      200.8 secs

     total energy              =   -1360.64334442 Ry
     Harris-Foulkes estimate   =   -1360.64334448 Ry
     estimated scf accuracy    <       0.00000014 Ry

     iteration # 11     ecut=    60.00 Ry     beta= 0.30
     Davidson diagonalization with overlap
     ethr =  1.44E-10,  avg # of iterations =  2.0

     total cpu time spent up to now is      217.4 secs

     total energy              =   -1360.64334445 Ry
     Harris-Foulkes estimate   =   -1360.64334445 Ry
     estimated scf accuracy    <          4.5E-09 Ry

     iteration # 12     ecut=    60.00 Ry     beta= 0.30
     Davidson diagonalization with overlap
     ethr =  4.69E-12,  avg # of iterations =  2.0

     total cpu time spent up to now is      232.1 secs

     total energy              =   -1360.64334445 Ry
     Harris-Foulkes estimate   =   -1360.64334445 Ry
     estimated scf accuracy    <          2.0E-09 Ry

     iteration # 13     ecut=    60.00 Ry     beta= 0.30
     Davidson diagonalization with overlap
     ethr =  2.09E-12,  avg # of iterations =  2.0

     total cpu time spent up to now is      249.2 secs

     End of self-consistent calculation

          k = 0.0000 0.0000 0.0000 (  3887 PWs)   bands (ev):

   -87.6699 -87.6662 -87.6662 -87.6662 -48.0950 -48.0950 -48.0950 -48.0778
   -48.0778 -48.0778 -48.0778 -48.0778 -48.0778 -48.0656 -48.0656 -48.0656
    -5.0173  -3.6223  -3.6223  -3.6223   8.5071   8.5071   8.5071  11.0472
    11.0472  11.0472  11.0472  11.0472  11.0472  12.3195  12.3195  12.3195
    12.6311  12.6311  12.6311  13.5856  13.5856  13.5856  13.7856  13.7856
    14.1675  14.1675  14.1675  14.6579  14.6579  14.6579  14.6579  14.6579
    14.6579  14.6810  14.6810  14.6810  17.1419  21.9760  21.9760  21.9760
    26.0652  26.0652

          k = 0.0000 0.0000 0.1250 (  3843 PWs)   bands (ev):

   -87.6698 -87.6663 -87.6662 -87.6662 -48.0943 -48.0943 -48.0939 -48.0785
   -48.0785 -48.0778 -48.0778 -48.0773 -48.0773 -48.0668 -48.0661 -48.0661
    -4.9597  -3.6661  -3.6049  -3.6049   8.4838   8.5594   8.5594  10.7877
    10.7877  10.7964  10.7964  11.0597  11.0597  11.6790  12.1665  12.1665
    12.6662  12.9002  12.9002  13.5480  13.7493  13.7493  13.7999  14.1528
    14.1853  14.3373  14.3373  14.6490  14.6490  14.6584  14.6584  14.6727
    14.6727  14.7433  14.7433  14.7646  17.5262  22.0524  22.2168  22.2168
    26.0614  26.0614

          k = 0.0000 0.0000 0.2500 (  3867 PWs)   bands (ev):

   -87.6694 -87.6667 -87.6662 -87.6662 -48.0924 -48.0924 -48.0908 -48.0803
   -48.0803 -48.0779 -48.0779 -48.0760 -48.0760 -48.0700 -48.0674 -48.0674
    -4.7958  -3.7986  -3.5690  -3.5690   8.4739   8.7085   8.7085  10.2750
    10.2750  10.2801  10.2801  10.6514  11.1014  11.1014  11.8632  11.8632
    12.7666  13.4094  13.4094  13.4414  13.8407  14.0735  14.0735  14.1113
    14.5033  14.5033  14.6055  14.6055  14.6233  14.6585  14.6585  14.6978
    14.6978  14.9314  15.0082  15.0082  18.5304  22.1260  22.8897  22.8897
    26.0496  26.0496

          k = 0.0000 0.0000 0.3750 (  3876 PWs)   bands (ev):

   -87.6688 -87.6674 -87.6662 -87.6662 -48.0897 -48.0897 -48.0861 -48.0831
   -48.0831 -48.0780 -48.0780 -48.0748 -48.0740 -48.0740 -48.0694 -48.0694
    -4.5549  -4.0106  -3.5309  -3.5309   8.6232   8.9588   8.9588   9.7193
     9.7606   9.7606   9.8639   9.8639  11.1878  11.1878  11.5685  11.5685
    12.9182  13.2835  13.8957  13.8957  13.9021  14.0487  14.3787  14.3787
    14.4912  14.4912  14.5466  14.5466  14.6588  14.6588  14.6865  14.6865
    14.8833  15.0388  15.2926  15.2926  19.7884  21.8186  23.7704  23.7704
    26.0892  26.0892

          k = 0.0000 0.0000-0.5000 (  3868 PWs)   bands (ev):

   -87.6681 -87.6681 -87.6662 -87.6662 -48.0864 -48.0864 -48.0864 -48.0864
   -48.0805 -48.0805 -48.0780 -48.0780 -48.0717 -48.0717 -48.0717 -48.0717
    -4.2778  -4.2778  -3.5134  -3.5134   9.0280   9.0280   9.3161   9.3161
     9.3161   9.3161   9.7115   9.7115  11.3369  11.3369  11.3369  11.3369
    13.0995  13.0995  13.9749  13.9749  14.2637  14.2637  14.2637  14.2637
    14.5565  14.5565  14.5882  14.5882  14.5882  14.5882  14.6592  14.6592
    15.0208  15.0208  15.3978  15.3978  20.9735  20.9735  24.2508  24.2508
    26.2590  26.2590

          k = 0.0000 0.1250 0.1250 (  3850 PWs)   bands (ev):

   -87.6697 -87.6663 -87.6663 -87.6662 -48.0937 -48.0934 -48.0934 -48.0798
   -48.0780 -48.0780 -48.0773 -48.0773 -48.0771 -48.0685 -48.0665 -48.0658
    -4.9029  -3.6480  -3.6480  -3.5921   8.5195   8.5195   8.6082  10.3521
    10.8043  10.8043  10.8094  10.8094  10.8219  11.4261  11.7526  12.0160
    12.9266  12.9266  13.0620  13.6334  13.7522  13.7881  14.0465  14.3138
    14.3138  14.4548  14.5569  14.6251  14.6723  14.6723  14.6728  14.6728
    14.6739  14.7601  14.8407  14.8407  17.8426  22.2778  22.2778  22.4373
    26.0525  26.0695

          k = 0.0000 0.1250 0.2500 (  3859 PWs)   bands (ev):

   -87.6693 -87.6667 -87.6663 -87.6662 -48.0919 -48.0918 -48.0907 -48.0819
   -48.0798 -48.0772 -48.0766 -48.0766 -48.0758 -48.0720 -48.0679 -48.0667
    -4.7418  -3.7748  -3.6050  -3.5610   8.4818   8.6229   8.7560   9.7884
    10.3022  10.3193  10.4986  10.5188  10.8531  10.8622  11.4739  11.7108
    13.0064  13.4255  13.4604  13.5779  13.8816  14.0708  14.2275  14.2566
    14.4570  14.5784  14.6725  14.6775  14.6817  14.6971  14.7095  14.7140
    14.9223  15.0488  15.0563  15.1193  18.7233  22.3046  22.9134  23.0645
    26.0018  26.0457

          k = 0.0000 0.1250 0.3750 (  3867 PWs)   bands (ev):

   -87.6687 -87.6673 -87.6663 -87.6662 -48.0898 -48.0891 -48.0866 -48.0845
   -48.0826 -48.0770 -48.0766 -48.0766 -48.0746 -48.0735 -48.0699 -48.0685
    -4.5064  -3.9772  -3.5560  -3.5338   8.5994   8.7841   9.0025   9.3112
     9.6275   9.7954   9.9619  10.1231  10.9337  10.9758  11.2437  11.3999
    13.1312  13.4433  13.8858  13.9015  13.9943  14.1801  14.3722  14.4097
    14.4437  14.4731  14.6729  14.6788  14.6844  14.6896  14.7112  14.7137
    15.1858  15.2216  15.3970  15.4164  19.9026  21.9401  23.7765  23.9108
    25.8984  26.0901

          k = 0.0000 0.1250-0.5000 (  3862 PWs)   bands (ev):

   -87.6680 -87.6680 -87.6663 -87.6663 -48.0872 -48.0872 -48.0858 -48.0858
   -48.0817 -48.0817 -48.0767 -48.0767 -48.0723 -48.0723 -48.0710 -48.0710
    -4.2358  -4.2358  -3.5278  -3.5278   8.9704   8.9704   8.9962   8.9962
     9.3538   9.3538   9.9043   9.9043  11.0584  11.0584  11.1503  11.1503
    13.2846  13.2846  14.0913  14.0913  14.2170  14.2170  14.2575  14.2575
    14.5835  14.5835  14.6237  14.6237  14.6746  14.6746  14.7028  14.7028
    15.2748  15.2748  15.5251  15.5252  21.0660  21.0660  24.3567  24.3567
    25.7752  25.7752

          k = 0.0000 0.2500 0.2500 (  3874 PWs)   bands (ev):

   -87.6689 -87.6667 -87.6667 -87.6663 -48.0904 -48.0904 -48.0900 -48.0844
   -48.0784 -48.0784 -48.0758 -48.0752 -48.0752 -48.0752 -48.0693 -48.0666
    -4.5911  -3.7135  -3.7135  -3.5473   8.4907   8.4907   8.8974   9.2380
    10.0223  10.3852  10.3852  10.3958  10.3958  10.4085  10.9726  11.3847
    13.4741  13.4741  13.6807  13.7667  13.9969  14.1403  14.3907  14.3960
    14.3960  14.5269  14.6946  14.6946  14.7062  14.7544  14.7544  14.8656
    15.3866  15.4035  15.4035  15.4833  19.3246  22.8103  22.8103  23.5755
    25.9550  26.0474

          k = 0.0000 0.2500 0.3750 (  3849 PWs)   bands (ev):

   -87.6684 -87.6672 -87.6666 -87.6664 -48.0897 -48.0878 -48.0874 -48.0866
   -48.0811 -48.0800 -48.0763 -48.0745 -48.0743 -48.0725 -48.0714 -48.0677
    -4.3702  -3.8904  -3.6363  -3.5463   8.5053   8.5099   8.8074   9.1368
     9.3307   9.9001  10.0894  10.1946  10.4771  10.5362  10.7234  11.0450
    13.5550  13.7515  13.9210  13.9866  14.1217  14.3223  14.3716  14.3818
    14.4347  14.5604  14.6791  14.6946  14.7086  14.7729  14.7983  14.8638
    15.6999  15.7648  15.7663  15.8171  20.2781  22.2785  23.5436  24.3367
    25.1755  25.8290

          k = 0.0000 0.2500-0.5000 (  3846 PWs)   bands (ev):

   -87.6678 -87.6678 -87.6665 -87.6665 -48.0885 -48.0885 -48.0842 -48.0842
   -48.0842 -48.0842 -48.0742 -48.0742 -48.0738 -48.0738 -48.0698 -48.0698
    -4.1218  -4.1218  -3.5747  -3.5747   8.5759   8.5759   8.7842   8.7842
     9.4739   9.4739  10.0468  10.0468  10.5767  10.5767  10.7557  10.7557
    13.6563  13.6563  14.2303  14.2303  14.2408  14.2408  14.2465  14.2465
    14.5759  14.5759  14.6996  14.6996  14.7046  14.7046  14.8356  14.8356
    15.8664  15.8664  15.9085  15.9085  21.3491  21.3491  24.3211  24.3211
    25.2500  25.2500

          k = 0.0000 0.3750 0.3750 (  3860 PWs)   bands (ev):

   -87.6680 -87.6670 -87.6670 -87.6666 -48.0888 -48.0888 -48.0883 -48.0848
   -48.0836 -48.0788 -48.0788 -48.0736 -48.0726 -48.0718 -48.0718 -48.0679
    -4.1766  -3.7758  -3.7758  -3.5868   8.3811   8.3811   8.4525   8.8829
     9.3617  10.0780  10.0780  10.1311  10.1689  10.1689  10.4019  10.6664
    13.9549  13.9549  13.9584  14.1668  14.2286  14.3614  14.3614  14.3705
    14.4421  14.6779  14.6779  14.6914  14.7112  14.8320  14.8320  14.8896
    16.1544  16.1544  16.1736  16.2776  20.9512  22.8051  22.8051  24.2655
    25.0116  26.2063

          k = 0.0000 0.3750-0.5000 (  3872 PWs)   bands (ev):

   -87.6675 -87.6675 -87.6668 -87.6668 -48.0890 -48.0890 -48.0867 -48.0867
   -48.0818 -48.0818 -48.0762 -48.0762 -48.0717 -48.0717 -48.0694 -48.0694
    -3.9652  -3.9652  -3.6660  -3.6660   8.3211   8.3211   8.5133   8.5133
     9.6778   9.6778  10.0807  10.0807  10.2496  10.2496  10.3348  10.3348
    13.9882  13.9882  14.2299  14.2299  14.3095  14.3095  14.3107  14.3107
    14.5848  14.5848  14.6911  14.6911  14.7944  14.7944  14.8717  14.8717
    16.3338  16.3338  16.3726  16.3726  21.8535  21.8535  23.4739  23.4739
    25.7952  25.7952

          k = 0.0000-0.5000-0.5000 (  3900 PWs)   bands (ev):

   -87.6671 -87.6671 -87.6671 -87.6671 -48.0884 -48.0884 -48.0884 -48.0884
   -48.0790 -48.0790 -48.0790 -48.0790 -48.0700 -48.0700 -48.0700 -48.0700
    -3.8025  -3.8025  -3.8025  -3.8025   8.3108   8.3108   8.3108   8.3108
     9.9661   9.9661   9.9661   9.9661  10.1139  10.1139  10.1139  10.1139
    14.1716  14.1716  14.1716  14.1716  14.3396  14.3396  14.3396  14.3396
    14.6350  14.6350  14.6350  14.6350  14.8560  14.8560  14.8560  14.8560
    16.5351  16.5351  16.5351  16.5351  22.5772  22.5772  22.5772  22.5772
    26.6807  26.7109

          k = 0.1250 0.1250 0.1250 (  3866 PWs)   bands (ev):

   -87.6695 -87.6663 -87.6663 -87.6663 -48.0929 -48.0929 -48.0929 -48.0791
   -48.0791 -48.0791 -48.0767 -48.0767 -48.0767 -48.0703 -48.0663 -48.0663
    -4.8473  -3.6329  -3.6329  -3.6329   8.5498   8.5498   8.5498  10.3906
    10.3906  10.3906  10.8275  10.8275  10.8275  11.1628  11.6606  11.6606
    13.0853  13.0853  13.0853  13.7123  13.7123  13.8487  14.4907  14.4907
    14.4912  14.4912  14.4912  14.6798  14.6798  14.6798  14.6956  14.6956
    14.6956  14.8747  14.8747  14.8747  18.1134  22.4826  22.4826  22.4826
    26.0268  26.0268

          k = 0.1250 0.1250 0.2500 (  3869 PWs)   bands (ev):

   -87.6692 -87.6667 -87.6663 -87.6663 -48.0917 -48.0917 -48.0908 -48.0809
   -48.0809 -48.0772 -48.0762 -48.0762 -48.0754 -48.0739 -48.0675 -48.0669
    -4.6901  -3.7536  -3.5945  -3.5945   8.4751   8.6345   8.6345   9.8771
     9.8771  10.3512  10.4890  10.5070  10.5070  10.8521  11.3094  11.4538
    13.1538  13.4747  13.4747  13.6586  13.8810  14.0550  14.4004  14.5392
    14.5392  14.5921  14.6805  14.6805  14.6975  14.7831  14.8213  14.8213
    15.0394  15.1142  15.1457  15.1457  18.8928  22.4585  23.0685  23.0685
    25.8894  25.8894

          k = 0.1250 0.1250 0.3750 (  3864 PWs)   bands (ev):

   -87.6686 -87.6673 -87.6663 -87.6663 -48.0900 -48.0900 -48.0874 -48.0829
   -48.0829 -48.0784 -48.0759 -48.0759 -48.0744 -48.0736 -48.0693 -48.0687
    -4.4584  -3.9478  -3.5560  -3.5560   8.5541   8.7267   8.7267   9.5149
     9.5175   9.5175  10.1478  10.1478  10.6249  10.9210  11.0358  11.2297
    13.2620  13.5393  13.8910  13.8910  14.0467  14.2999  14.3292  14.4394
    14.4394  14.6708  14.6775  14.6775  14.7219  14.8363  14.8609  14.8609
    15.3250  15.3355  15.4889  15.4890  20.0009  22.0285  23.8889  23.8889
    25.5644  25.5644

          k = 0.1250 0.1250-0.5000 (  3868 PWs)   bands (ev):

   -87.6679 -87.6679 -87.6663 -87.6663 -48.0890 -48.0890 -48.0840 -48.0840
   -48.0831 -48.0831 -48.0759 -48.0759 -48.0715 -48.0715 -48.0714 -48.0714
    -4.1955  -4.1955  -3.5401  -3.5401   8.7589   8.7589   8.8929   8.8929
     9.4159   9.4159   9.9826   9.9826  10.8058  10.8058  11.0458  11.0458
    13.3978  13.3978  14.1729  14.1729  14.1843  14.1843  14.2786  14.2786
    14.5502  14.5502  14.6758  14.6758  14.8174  14.8174  14.8719  14.8719
    15.4139  15.4139  15.6170  15.6170  21.1354  21.1354  24.4694  24.4694
    25.1998  25.1998

          k = 0.1250 0.2500 0.2500 (  3868 PWs)   bands (ev):

   -87.6688 -87.6667 -87.6667 -87.6664 -48.0910 -48.0909 -48.0909 -48.0823
   -48.0784 -48.0784 -48.0777 -48.0748 -48.0748 -48.0748 -48.0685 -48.0669
    -4.5426  -3.6965  -3.6965  -3.5737   8.4478   8.4478   8.6215   9.4754
     9.8290  10.0459  10.0459  10.4081  10.5343  10.5343  10.9190  11.1675
    13.5184  13.5184  13.6898  13.8294  13.9277  14.1492  14.4811  14.4811
    14.5240  14.6843  14.6956  14.6956  14.8452  14.9455  14.9455  15.0575
    15.4065  15.4147  15.4147  15.4967  19.4362  22.8996  22.8996  23.5143
    25.4853  25.8974

          k = 0.1250 0.2500 0.3750 (  3855 PWs)   bands (ev):

   -87.6683 -87.6672 -87.6666 -87.6664 -48.0908 -48.0906 -48.0890 -48.0826
   -48.0819 -48.0800 -48.0754 -48.0742 -48.0740 -48.0726 -48.0703 -48.0680
    -4.3269  -3.8656  -3.6290  -3.5623   8.3929   8.4212   8.4934   9.1698
     9.3862   9.7469  10.1912  10.1931  10.2259  10.5962  10.6415  10.9116
    13.5931  13.7892  13.9112  13.9888  14.1081  14.3638  14.3951  14.4269
    14.4353  14.6738  14.6772  14.6855  14.9584  15.0153  15.0354  15.0915
    15.7173  15.7883  15.7936  15.8412  20.3244  22.2934  23.5273  24.1523
    24.9014  25.4537

          k = 0.1250 0.2500-0.5000 (  3850 PWs)   bands (ev):

   -87.6677 -87.6677 -87.6665 -87.6665 -48.0906 -48.0906 -48.0859 -48.0859
   -48.0817 -48.0817 -48.0738 -48.0738 -48.0727 -48.0727 -48.0701 -48.0701
    -4.0868  -4.0868  -3.5789  -3.5789   8.3823   8.3823   8.6608   8.6608
     9.5418   9.5418  10.0647  10.0647  10.4218  10.4218  10.7153  10.7153
    13.6901  13.6901  14.1790  14.1790  14.2722  14.2722  14.3108  14.3108
    14.5627  14.5627  14.6763  14.6763  15.0203  15.0203  15.0816  15.0816
    15.8933  15.8933  15.9413  15.9413  21.3565  21.3565  24.1784  24.1784
    24.9123  24.9123

          k = 0.1250 0.3750 0.3750 (  3860 PWs)   bands (ev):

   -87.6679 -87.6670 -87.6670 -87.6666 -48.0912 -48.0904 -48.0904 -48.0856
   -48.0813 -48.0772 -48.0772 -48.0724 -48.0722 -48.0717 -48.0717 -48.0681
    -4.1404  -3.7584  -3.7584  -3.5924   8.2301   8.2402   8.2402   8.7056
     9.5001   9.9582   9.9582  10.1220  10.2391  10.2391  10.3681  10.5831
    13.9513  13.9513  14.0073  14.1466  14.1650  14.3867  14.3959  14.3959
    14.4783  14.6606  14.6702  14.6702  15.0689  15.1167  15.1167  15.1678
    16.1641  16.1641  16.1867  16.2842  20.9233  22.7061  22.7061  23.8571
    24.9345  25.9206

          k = 0.1250 0.3750-0.5000 (  3858 PWs)   bands (ev):

   -87.6675 -87.6675 -87.6668 -87.6668 -48.0912 -48.0912 -48.0886 -48.0886
   -48.0793 -48.0793 -48.0746 -48.0746 -48.0716 -48.0716 -48.0695 -48.0695
    -3.9368  -3.9368  -3.6597  -3.6597   8.1385   8.1385   8.3519   8.3519
     9.7299   9.7299  10.0771  10.0771  10.1755  10.1755  10.3415  10.3415
    14.0029  14.0029  14.2142  14.2142  14.2949  14.2949  14.3355  14.3355
    14.6008  14.6008  14.6565  14.6565  15.1251  15.1251  15.1681  15.1681
    16.3473  16.3473  16.3827  16.3827  21.7687  21.7687  23.2336  23.2336
    25.4315  25.4315

          k = 0.1250-0.5000-0.5000 (  3864 PWs)   bands (ev):

   -87.6671 -87.6671 -87.6671 -87.6671 -48.0906 -48.0905 -48.0905 -48.0905
   -48.0769 -48.0769 -48.0769 -48.0769 -48.0700 -48.0700 -48.0700 -48.0700
    -3.7839  -3.7839  -3.7839  -3.7839   8.1354   8.1354   8.1354   8.1354
     9.9892   9.9892   9.9892   9.9892  10.0961  10.0961  10.0961  10.0961
    14.2048  14.2048  14.2048  14.2049  14.2976  14.2976  14.2976  14.2976
    14.6332  14.6332  14.6332  14.6332  15.1768  15.1768  15.1768  15.1768
    16.5468  16.5468  16.5468  16.5468  22.4004  22.4004  22.4004  22.4004
    25.9831  25.9831

          k = 0.2500 0.2500 0.2500 (  3872 PWs)   bands (ev):

   -87.6685 -87.6667 -87.6667 -87.6667 -48.0919 -48.0919 -48.0919 -48.0816
   -48.0783 -48.0783 -48.0783 -48.0739 -48.0739 -48.0739 -48.0678 -48.0678
    -4.4054  -3.6565  -3.6565  -3.6565   8.3050   8.3050   8.3050   9.3276
     9.7493   9.7493   9.7493  10.4145  10.4145  10.4145  10.7895  10.7895
    13.7212  13.7212  13.7212  13.9846  13.9846  14.1831  14.5022  14.5022
    14.5022  14.6980  14.6980  14.6980  15.4377  15.4377  15.4377  15.4589
    15.4589  15.4589  15.5302  15.5302  19.8119  23.1239  23.1239  23.1239
    25.4330  25.4330

          k = 0.2500 0.2500 0.3750 (  3853 PWs)   bands (ev):

   -87.6681 -87.6671 -87.6667 -87.6667 -48.0928 -48.0928 -48.0913 -48.0857
   -48.0782 -48.0782 -48.0742 -48.0731 -48.0731 -48.0725 -48.0692 -48.0685
    -4.2082  -3.7988  -3.6150  -3.6150   8.1167   8.1167   8.1850   8.7550
     9.6541   9.6541   9.9795  10.1959  10.1959  10.4471  10.4669  10.6435
    13.7818  13.9473  14.0068  14.0068  14.1667  14.3790  14.4396  14.4458
    14.4458  14.6853  14.6898  14.6898  15.4765  15.4765  15.5216  15.5622
    15.8160  15.9113  15.9113  15.9648  20.4925  22.3365  23.3577  23.3577
    25.0845  25.0845

          k = 0.2500 0.2500-0.5000 (  3848 PWs)   bands (ev):

   -87.6676 -87.6676 -87.6667 -87.6667 -48.0932 -48.0932 -48.0891 -48.0891
   -48.0782 -48.0782 -48.0728 -48.0728 -48.0709 -48.0709 -48.0708 -48.0708
    -3.9922  -3.9922  -3.5976  -3.5976   8.0294   8.0294   8.3376   8.3376
     9.6647   9.6647  10.0780  10.0780  10.2050  10.2050  10.5233  10.5233
    13.8632  13.8632  14.1945  14.1945  14.3261  14.3261  14.3545  14.3545
    14.5774  14.5774  14.6832  14.6832  15.4913  15.4913  15.5626  15.5626
    16.0336  16.0336  16.0858  16.0858  21.3952  21.3952  23.4495  23.4495
    24.9756  24.9756

          k = 0.2500 0.3750 0.3750 (  3858 PWs)   bands (ev):

   -87.6678 -87.6670 -87.6670 -87.6668 -48.0942 -48.0933 -48.0933 -48.0894
   -48.0767 -48.0745 -48.0745 -48.0719 -48.0716 -48.0716 -48.0702 -48.0686
    -4.0407  -3.7164  -3.7164  -3.6156   7.8589   7.9159   7.9159   8.2904
     9.7033   9.8695   9.8695  10.1049  10.2099  10.2099  10.2885  10.3978
    14.0481  14.0481  14.1291  14.1785  14.1977  14.4171  14.4258  14.4258
    14.4897  14.6852  14.6919  14.6919  15.6794  15.7022  15.7022  15.7632
    16.1897  16.1897  16.2247  16.3045  20.8810  22.4128  22.4128  22.9638
    25.1090  25.5219

          k = 0.2500 0.3750-0.5000 (  3850 PWs)   bands (ev):

   -87.6674 -87.6674 -87.6669 -87.6669 -48.0944 -48.0944 -48.0921 -48.0921
   -48.0754 -48.0754 -48.0720 -48.0720 -48.0713 -48.0713 -48.0698 -48.0698
    -3.8647  -3.8647  -3.6484  -3.6484   7.7802   7.7802   7.9771   7.9771
     9.8151   9.8151  10.0588  10.0588  10.0792  10.0792  10.2632  10.2632
    14.1043  14.1043  14.2508  14.2508  14.3373  14.3373  14.3719  14.3719
    14.6247  14.6247  14.6854  14.6854  15.7235  15.7235  15.7735  15.7735
    16.3890  16.3890  16.4051  16.4051  21.5455  21.5455  22.6025  22.6025
    25.2985  25.2985

          k = 0.2500-0.5000-0.5000 (  3848 PWs)   bands (ev):

   -87.6671 -87.6671 -87.6671 -87.6671 -48.0940 -48.0940 -48.0940 -48.0940
   -48.0735 -48.0735 -48.0735 -48.0735 -48.0700 -48.0700 -48.0700 -48.0700
    -3.7404  -3.7404  -3.7404  -3.7404   7.7588   7.7588   7.7588   7.7588
    10.0075  10.0075  10.0075  10.0075  10.0520  10.0520  10.0520  10.0520
    14.2834  14.2834  14.2834  14.2834  14.3167  14.3167  14.3167  14.3167
    14.6682  14.6682  14.6682  14.6682  15.7944  15.7944  15.7944  15.7944
    16.5756  16.5756  16.5756  16.5756  21.9342  21.9342  21.9342  21.9342
    25.6376  25.6376

          k = 0.3750 0.3750 0.3750 (  3863 PWs)   bands (ev):

   -87.6675 -87.6670 -87.6670 -87.6670 -48.0956 -48.0956 -48.0956 -48.0929
   -48.0728 -48.0728 -48.0728 -48.0712 -48.0712 -48.0712 -48.0694 -48.0694
    -3.9062  -3.6735  -3.6735  -3.6735   7.6147   7.6147   7.6147   7.8684
     9.8659   9.8659   9.8659  10.1006  10.1006  10.1006  10.1976  10.1976
    14.2143  14.2143  14.2143  14.2686  14.2686  14.4232  14.4232  14.4232
    14.5629  14.7186  14.7186  14.7186  16.1845  16.1845  16.1845  16.2722
    16.2722  16.2722  16.3188  16.3188  20.9609  22.0589  22.0589  22.0589
    25.4101  25.4101

          k = 0.3750 0.3750-0.5000 (  3850 PWs)   bands (ev):

   -87.6673 -87.6673 -87.6670 -87.6670 -48.0964 -48.0964 -48.0951 -48.0951
   -48.0724 -48.0724 -48.0707 -48.0707 -48.0703 -48.0703 -48.0702 -48.0702
    -3.7736  -3.7736  -3.6551  -3.6551   7.4968   7.4968   7.6152   7.6152
     9.8975   9.8975  10.0205  10.0205  10.0252  10.0252  10.1306  10.1306
    14.2558  14.2558  14.3194  14.3194  14.3751  14.3751  14.3924  14.3924
    14.6779  14.6779  14.7288  14.7288  16.2171  16.2171  16.3102  16.3102
    16.4632  16.4632  16.4732  16.4732  21.3455  21.3455  21.8958  21.8958
    25.4084  25.4084

          k = 0.3750-0.5000-0.5000 (  3872 PWs)   bands (ev):

   -87.6671 -87.6671 -87.6671 -87.6671 -48.0966 -48.0966 -48.0966 -48.0966
   -48.0709 -48.0709 -48.0709 -48.0709 -48.0700 -48.0700 -48.0700 -48.0700
    -3.6972  -3.6972  -3.6972  -3.6972   7.4305   7.4305   7.4305   7.4305
     9.9966   9.9966   9.9966   9.9966  10.0064  10.0065  10.0065  10.0065
    14.3591  14.3591  14.3591  14.3591  14.3691  14.3691  14.3691  14.3691
    14.7291  14.7291  14.7291  14.7291  16.3705  16.3705  16.3705  16.3705
    16.6027  16.6027  16.6027  16.6027  21.4246  21.4246  21.4246  21.4246
    25.5617  25.5617

          k =-0.5000-0.5000-0.5000 (  3840 PWs)   bands (ev):

   -87.6671 -87.6671 -87.6671 -87.6671 -48.0976 -48.0976 -48.0976 -48.0976
   -48.0700 -48.0700 -48.0700 -48.0700 -48.0700 -48.0700 -48.0700 -48.0700
    -3.6779  -3.6779  -3.6779  -3.6779   7.3057   7.3057   7.3057   7.3057
     9.9898   9.9898   9.9898   9.9898   9.9898   9.9898   9.9898   9.9898
    14.3901  14.3901  14.3901  14.3901  14.3901  14.3901  14.3901  14.3901
    14.7638  14.7638  14.7638  14.7638  16.6169  16.6169  16.6169  16.6169
    16.6169  16.6169  16.6169  16.6169  21.1986  21.1986  21.1986  21.1986
    25.5695  25.5695

     the Fermi energy is    15.3433 ev

!    total energy              =   -1360.64334445 Ry
     Harris-Foulkes estimate   =   -1360.64334445 Ry
     estimated scf accuracy    <          8.7E-11 Ry

     The total energy is the sum of the following terms:

     one-electron contribution =    -618.53993147 Ry
     hartree contribution      =     362.58094159 Ry
     xc contribution           =    -148.97748932 Ry
     ewald contribution        =    -955.70273635 Ry
     smearing contrib. (-TS)   =      -0.00412889 Ry

     convergence has been achieved in  13 iterations

     Writing output data file nio.save/

     init_run     :      5.97s CPU      6.28s WALL (       1 calls)
     electrons    :    235.24s CPU    242.70s WALL (       1 calls)

     Called by init_run:
     wfcinit      :      5.68s CPU      5.90s WALL (       1 calls)
     potinit      :      0.06s CPU      0.07s WALL (       1 calls)
     hinit0       :      0.21s CPU      0.29s WALL (       1 calls)

     Called by electrons:
     c_bands      :    208.05s CPU    215.00s WALL (      14 calls)
     sum_band     :     26.43s CPU     26.84s WALL (      14 calls)
     v_of_rho     :      0.67s CPU      0.68s WALL (      14 calls)
     mix_rho      :      0.12s CPU      0.20s WALL (      14 calls)

     Called by c_bands:
     init_us_2    :      4.13s CPU      4.17s WALL (    1015 calls)
     cegterg      :    195.81s CPU    202.30s WALL (     490 calls)

     Called by sum_band:

     Called by *egterg:
     h_psi        :    139.52s CPU    142.41s WALL (    1518 calls)
     g_psi        :      1.46s CPU      1.47s WALL (     993 calls)
     cdiaghg      :      9.42s CPU      9.47s WALL (    1448 calls)

     Called by h_psi:
     h_psi:pot    :    138.50s CPU    139.11s WALL (    1518 calls)
     h_psi:calbec :     12.74s CPU     12.79s WALL (    1518 calls)
     vloc_psi     :    113.06s CPU    113.58s WALL (    1518 calls)
     add_vuspsi   :     12.67s CPU     12.73s WALL (    1518 calls)

     General routines
     calbec       :     12.73s CPU     12.78s WALL (    1518 calls)
     fft          :      0.10s CPU      0.17s WALL (     140 calls)
     ffts         :      0.01s CPU      0.01s WALL (      14 calls)
     fftw         :    117.71s CPU    118.22s WALL (  172430 calls)


     PWSCF        :   4m 1.39s CPU   4m 9.43s WALL


   This run was terminated on:  11:37:54  22May2019            

=------------------------------------------------------------------------------=
   JOB DONE.
=------------------------------------------------------------------------------=
